# Field minima and maxima
# Time        	field         	min           	location(min) 	processor     	max           	location(max) 	processor     
0.00025       	rho           	1.400005e+00	(3.009719e-01 8.602680e-02 -3.272174e-20)	12	1.532415e+00	(3.009719e-01 8.243906e-02 -1.293095e-19)	12
0.00025       	p             	9.999997e-01	(3.009719e-01 8.602680e-02 -3.272174e-20)	12	1.134599e+00	(3.009719e-01 8.243906e-02 -1.293095e-19)	12
0.0005        	rho           	1.400004e+00	(3.009719e-01 8.602680e-02 -3.272174e-20)	12	1.664514e+00	(3.009719e-01 8.243906e-02 -1.293095e-19)	12
0.0005        	p             	9.999987e-01	(3.009719e-01 8.602680e-02 -3.272174e-20)	12	1.274011e+00	(3.009719e-01 8.243906e-02 -1.293095e-19)	12
0.00075       	rho           	1.400002e+00	(3.009719e-01 8.602680e-02 -3.272174e-20)	12	1.796352e+00	(3.009719e-01 8.243906e-02 -1.293095e-19)	12
0.00075       	p             	9.999974e-01	(3.009719e-01 8.602680e-02 -3.272174e-20)	12	1.418338e+00	(3.009719e-01 8.243906e-02 -1.293095e-19)	12
0.001         	rho           	1.400001e+00	(3.009719e-01 8.602680e-02 -3.272174e-20)	12	1.928094e+00	(3.009719e-01 8.243906e-02 -1.293095e-19)	12
0.001         	p             	9.999958e-01	(3.009719e-01 8.602680e-02 -3.272174e-20)	12	1.567770e+00	(3.009719e-01 8.243906e-02 -1.293095e-19)	12
0.00125       	rho           	1.399999e+00	(3.009719e-01 8.602680e-02 -3.272174e-20)	12	2.059763e+00	(3.009719e-01 8.243906e-02 -1.293095e-19)	12
0.00125       	p             	9.999940e-01	(3.009719e-01 8.602680e-02 -3.272174e-20)	12	1.722316e+00	(3.009719e-01 8.243906e-02 -1.293095e-19)	12
0.0015        	rho           	1.399997e+00	(3.009719e-01 8.602680e-02 -3.272174e-20)	12	2.191385e+00	(3.009719e-01 8.243906e-02 -1.293095e-19)	12
0.0015        	p             	9.999920e-01	(3.009719e-01 8.602680e-02 -3.272174e-20)	12	1.881956e+00	(3.009719e-01 8.243906e-02 -1.293095e-19)	12
0.00175       	rho           	1.399995e+00	(3.009719e-01 8.602680e-02 -3.272174e-20)	12	2.322983e+00	(3.009719e-01 8.243906e-02 -1.293095e-19)	12
0.00175       	p             	9.999901e-01	(3.009719e-01 8.602680e-02 -3.272174e-20)	12	2.046640e+00	(3.009719e-01 8.243906e-02 -1.293095e-19)	12
0.002         	rho           	1.399996e+00	(2.781134e-01 8.036123e-02 -1.211796e-20)	12	2.454407e+00	(3.009719e-01 8.243906e-02 -1.293095e-19)	12
0.002         	p             	9.999911e-01	(2.781134e-01 8.036123e-02 -1.211796e-20)	12	2.216094e+00	(3.009719e-01 8.243906e-02 -1.293095e-19)	12
0.00225       	rho           	1.399997e+00	(2.476349e-01 7.280706e-02 1.176193e-19)	12	2.584243e+00	(3.009719e-01 8.243906e-02 -1.293095e-19)	12
0.00225       	p             	9.999923e-01	(2.476349e-01 7.280706e-02 1.176193e-19)	12	2.388573e+00	(3.009719e-01 8.243906e-02 -1.293095e-19)	12
0.0025        	rho           	1.399999e+00	(2.095365e-01 6.336426e-02 -3.306204e-20)	13	2.711898e+00	(3.009719e-01 8.243906e-02 -1.293095e-19)	12
0.0025        	p             	9.999940e-01	(2.095365e-01 6.336426e-02 -3.306204e-20)	13	2.563200e+00	(3.009719e-01 8.243906e-02 -1.293095e-19)	12
0.00275       	rho           	1.400000e+00	(1.714378e-01 5.392138e-02 5.950298e-21)	8	2.837051e+00	(3.009719e-01 8.243906e-02 -1.293095e-19)	12
0.00275       	p             	9.999952e-01	(1.714378e-01 5.392138e-02 5.950298e-21)	8	2.739387e+00	(3.009719e-01 8.243906e-02 -1.293095e-19)	12
0.003         	rho           	1.400001e+00	(1.333389e-01 4.447844e-02 5.023217e-19)	8	2.959418e+00	(3.009719e-01 8.243906e-02 -1.293095e-19)	12
0.003         	p             	9.999960e-01	(1.333389e-01 4.447844e-02 5.023217e-19)	8	2.916560e+00	(3.009719e-01 8.243906e-02 -1.293095e-19)	12
0.00325       	rho           	1.400001e+00	(1.028596e-01 3.692406e-02 -2.830363e-19)	9	3.078749e+00	(3.009719e-01 8.243906e-02 -1.293095e-19)	12
0.00325       	p             	9.999964e-01	(1.028596e-01 3.692406e-02 -2.830363e-19)	9	3.094174e+00	(3.009719e-01 8.243906e-02 -1.293095e-19)	12
0.0035        	rho           	1.400002e+00	(6.476040e-02 2.748106e-02 -1.541498e-19)	4	3.194837e+00	(3.009719e-01 8.243906e-02 -1.293095e-19)	12
0.0035        	p             	9.999970e-01	(6.476040e-02 2.748106e-02 -1.541498e-19)	4	3.271710e+00	(3.009719e-01 8.243906e-02 -1.293095e-19)	12
0.00375       	rho           	1.400003e+00	(2.666107e-02 1.803803e-02 -9.406721e-20)	4	3.307516e+00	(3.009719e-01 8.243906e-02 -1.293095e-19)	12
0.00375       	p             	9.999975e-01	(2.666107e-02 1.803803e-02 -9.406721e-20)	4	3.448678e+00	(3.009719e-01 8.243906e-02 -1.293095e-19)	12
0.004         	rho           	1.399998e+00	(1.904120e-02 1.614942e-02 1.569273e-19)	4	3.416660e+00	(3.009719e-01 8.243906e-02 -1.293095e-19)	12
0.004         	p             	9.999921e-01	(1.904120e-02 1.614942e-02 1.569273e-19)	4	3.624619e+00	(3.009719e-01 8.243906e-02 -1.293095e-19)	12
0.00425       	rho           	1.399967e+00	(1.904120e-02 1.614942e-02 1.569273e-19)	4	3.522179e+00	(3.009719e-01 8.243906e-02 -1.293095e-19)	12
0.00425       	p             	9.999564e-01	(1.904120e-02 1.614942e-02 1.569273e-19)	4	3.799097e+00	(3.009719e-01 8.243906e-02 -1.293095e-19)	12
0.0045        	rho           	1.400003e+00	(1.142132e-02 1.426081e-02 2.651029e-20)	5	3.624018e+00	(3.009719e-01 8.243906e-02 -1.293095e-19)	12
0.0045        	p             	9.999982e-01	(1.142132e-02 1.426081e-02 2.651029e-20)	5	3.971701e+00	(3.009719e-01 8.243906e-02 -1.293095e-19)	12
0.00475       	rho           	1.399991e+00	(1.142132e-02 1.426081e-02 2.651029e-20)	5	3.722147e+00	(3.048000e-01 8.343914e-02 -3.754156e-20)	12
0.00475       	p             	9.999822e-01	(1.142132e-02 1.426081e-02 2.651029e-20)	5	4.142041e+00	(3.009719e-01 8.243906e-02 -1.293095e-19)	12
0.005         	rho           	1.399952e+00	(1.142132e-02 1.426081e-02 2.651029e-20)	5	3.816562e+00	(3.009719e-01 8.243906e-02 -1.293095e-19)	12
0.005         	p             	9.999333e-01	(1.142132e-02 1.426081e-02 2.651029e-20)	5	4.309741e+00	(3.009719e-01 8.243906e-02 -1.293095e-19)	12
0.00525       	rho           	1.399882e+00	(1.142132e-02 1.426081e-02 2.651029e-20)	5	3.907278e+00	(3.009719e-01 8.243906e-02 -1.293095e-19)	12
0.00525       	p             	9.998491e-01	(1.142132e-02 1.426081e-02 2.651029e-20)	5	4.474442e+00	(3.009719e-01 8.243906e-02 -1.293095e-19)	12
0.0055        	rho           	1.399783e+00	(1.142132e-02 1.426081e-02 2.651029e-20)	5	3.994327e+00	(3.009719e-01 8.243906e-02 -1.293095e-19)	12
0.0055        	p             	9.997359e-01	(1.142132e-02 1.426081e-02 2.651029e-20)	5	4.635799e+00	(3.009719e-01 8.243906e-02 -1.293095e-19)	12
0.00575       	rho           	1.399664e+00	(1.142132e-02 1.426081e-02 2.651029e-20)	5	4.077753e+00	(3.009719e-01 8.243906e-02 -1.293095e-19)	12
0.00575       	p             	9.996044e-01	(1.142132e-02 1.426081e-02 2.651029e-20)	5	4.793483e+00	(3.009719e-01 8.243906e-02 -1.293095e-19)	12
0.006         	rho           	1.399533e+00	(1.142132e-02 1.426081e-02 2.651029e-20)	5	4.157614e+00	(3.009719e-01 8.243906e-02 -1.293095e-19)	12
0.006         	p             	9.994657e-01	(1.142132e-02 1.426081e-02 2.651029e-20)	5	4.947181e+00	(3.009719e-01 8.243906e-02 -1.293095e-19)	12
0.00625       	rho           	1.399400e+00	(1.142132e-02 1.426081e-02 2.651029e-20)	5	4.233972e+00	(3.009719e-01 8.243906e-02 -1.293095e-19)	12
0.00625       	p             	9.993288e-01	(1.142132e-02 1.426081e-02 2.651029e-20)	5	5.096600e+00	(3.009719e-01 8.243906e-02 -1.293095e-19)	12
0.0065        	rho           	1.399273e+00	(1.142132e-02 1.426081e-02 2.651029e-20)	5	4.306846e+00	(3.009719e-01 8.243906e-02 -1.293095e-19)	12
0.0065        	p             	9.992003e-01	(1.142132e-02 1.426081e-02 2.651029e-20)	5	5.241382e+00	(3.009719e-01 8.243906e-02 -1.293095e-19)	12
0.00675       	rho           	1.399155e+00	(1.142132e-02 1.426081e-02 2.651029e-20)	5	4.376175e+00	(3.009719e-01 8.243906e-02 -1.293095e-19)	12
0.00675       	p             	9.990841e-01	(1.142132e-02 1.426081e-02 2.651029e-20)	5	5.381063e+00	(3.009719e-01 8.243906e-02 -1.293095e-19)	12
0.007         	rho           	1.399050e+00	(1.142132e-02 1.426081e-02 2.651029e-20)	5	4.442035e+00	(3.009719e-01 8.243906e-02 -1.293095e-19)	12
0.007         	p             	9.989823e-01	(1.142132e-02 1.426081e-02 2.651029e-20)	5	5.515400e+00	(3.009719e-01 8.243906e-02 -1.293095e-19)	12
0.00725       	rho           	1.398960e+00	(1.142132e-02 1.426081e-02 2.651029e-20)	5	4.504468e+00	(3.009719e-01 8.243906e-02 -1.293095e-19)	12
0.00725       	p             	9.988955e-01	(1.142132e-02 1.426081e-02 2.651029e-20)	5	5.644130e+00	(3.009719e-01 8.243906e-02 -1.293095e-19)	12
0.0075        	rho           	1.398885e+00	(1.142132e-02 1.426081e-02 2.651029e-20)	5	4.563509e+00	(3.009719e-01 8.243906e-02 -1.293095e-19)	12
0.0075        	p             	9.988237e-01	(1.142132e-02 1.426081e-02 2.651029e-20)	5	5.767008e+00	(3.009719e-01 8.243906e-02 -1.293095e-19)	12
0.00775       	rho           	1.398824e+00	(1.142132e-02 1.426081e-02 2.651029e-20)	5	4.619184e+00	(3.009719e-01 8.243906e-02 -1.293095e-19)	12
0.00775       	p             	9.987660e-01	(1.142132e-02 1.426081e-02 2.651029e-20)	5	5.883807e+00	(3.009719e-01 8.243906e-02 -1.293095e-19)	12
0.008         	rho           	1.398778e+00	(1.142132e-02 1.426081e-02 2.651029e-20)	5	4.671509e+00	(3.009719e-01 8.243906e-02 -1.293095e-19)	12
0.008         	p             	9.987215e-01	(1.142132e-02 1.426081e-02 2.651029e-20)	5	5.994312e+00	(3.009719e-01 8.243906e-02 -1.293095e-19)	12
0.00825       	rho           	1.398744e+00	(1.142132e-02 1.426081e-02 2.651029e-20)	5	4.720485e+00	(3.009719e-01 8.243906e-02 -1.293095e-19)	12
0.00825       	p             	9.986891e-01	(1.142132e-02 1.426081e-02 2.651029e-20)	5	6.098319e+00	(3.009719e-01 8.243906e-02 -1.293095e-19)	12
0.0085        	rho           	1.398722e+00	(1.142132e-02 1.426081e-02 2.651029e-20)	5	4.766101e+00	(3.009719e-01 8.243906e-02 -1.293095e-19)	12
0.0085        	p             	9.986678e-01	(1.142132e-02 1.426081e-02 2.651029e-20)	5	6.195636e+00	(3.009719e-01 8.243906e-02 -1.293095e-19)	12
0.00875       	rho           	1.398711e+00	(1.142132e-02 1.426081e-02 2.651029e-20)	5	4.808335e+00	(3.009719e-01 8.243906e-02 -1.293095e-19)	12
0.00875       	p             	9.986568e-01	(1.142132e-02 1.426081e-02 2.651029e-20)	5	6.286078e+00	(3.009719e-01 8.243906e-02 -1.293095e-19)	12
0.009         	rho           	1.398710e+00	(1.142132e-02 1.426081e-02 2.651029e-20)	5	4.847154e+00	(3.009719e-01 8.243906e-02 -1.293095e-19)	12
0.009         	p             	9.986551e-01	(1.142132e-02 1.426081e-02 2.651029e-20)	5	6.369470e+00	(3.009719e-01 8.243906e-02 -1.293095e-19)	12
0.00925       	rho           	1.398720e+00	(1.142132e-02 1.426081e-02 2.651029e-20)	5	4.882520e+00	(3.009719e-01 8.243906e-02 -1.293095e-19)	12
0.00925       	p             	9.986621e-01	(1.142132e-02 1.426081e-02 2.651029e-20)	5	6.445646e+00	(3.009719e-01 8.243906e-02 -1.293095e-19)	12
0.0095        	rho           	1.398738e+00	(1.142132e-02 1.426081e-02 2.651029e-20)	5	4.914385e+00	(3.009719e-01 8.243906e-02 -1.293095e-19)	12
0.0095        	p             	9.986771e-01	(1.142132e-02 1.426081e-02 2.651029e-20)	5	6.514458e+00	(3.009719e-01 8.243906e-02 -1.293095e-19)	12
0.00975       	rho           	1.398765e+00	(1.142132e-02 1.426081e-02 2.651029e-20)	5	4.942544e+00	(3.009719e-01 8.243906e-02 -1.293095e-19)	12
0.00975       	p             	9.986996e-01	(1.142132e-02 1.426081e-02 2.651029e-20)	5	6.575484e+00	(3.009719e-01 8.243906e-02 -1.293095e-19)	12
0.01          	rho           	1.398799e+00	(1.142132e-02 1.426081e-02 2.651029e-20)	5	4.966923e+00	(3.009719e-01 8.243906e-02 -1.293095e-19)	12
0.01          	p             	9.987290e-01	(1.142132e-02 1.426081e-02 2.651029e-20)	5	6.628550e+00	(3.009719e-01 8.243906e-02 -1.293095e-19)	12
0.01025       	rho           	1.398841e+00	(1.142132e-02 1.426081e-02 2.651029e-20)	5	4.987572e+00	(3.009719e-01 8.243906e-02 -1.293095e-19)	12
0.01025       	p             	9.987647e-01	(1.142132e-02 1.426081e-02 2.651029e-20)	5	6.673714e+00	(3.009719e-01 8.243906e-02 -1.293095e-19)	12
0.0105        	rho           	1.398890e+00	(1.142132e-02 1.426081e-02 2.651029e-20)	5	5.004524e+00	(3.009719e-01 8.243906e-02 -1.293095e-19)	12
0.0105        	p             	9.988059e-01	(1.142132e-02 1.426081e-02 2.651029e-20)	5	6.710912e+00	(3.009719e-01 8.243906e-02 -1.293095e-19)	12
0.01075       	rho           	1.398944e+00	(1.142132e-02 1.426081e-02 2.651029e-20)	5	5.017838e+00	(3.009719e-01 8.243906e-02 -1.293095e-19)	12
0.01075       	p             	9.988518e-01	(1.142132e-02 1.426081e-02 2.651029e-20)	5	6.740272e+00	(3.009719e-01 8.243906e-02 -1.293095e-19)	12
0.011         	rho           	1.399003e+00	(1.142132e-02 1.426081e-02 2.651029e-20)	5	5.027509e+00	(3.009719e-01 8.243906e-02 -1.293095e-19)	12
0.011         	p             	9.989013e-01	(1.142132e-02 1.426081e-02 2.651029e-20)	5	6.762028e+00	(3.009719e-01 8.243906e-02 -1.293095e-19)	12
0.01125       	rho           	1.399064e+00	(1.142132e-02 1.426081e-02 2.651029e-20)	5	5.033448e+00	(3.009719e-01 8.243906e-02 -1.293095e-19)	12
0.01125       	p             	9.989532e-01	(1.142132e-02 1.426081e-02 2.651029e-20)	5	6.776068e+00	(3.009719e-01 8.243906e-02 -1.293095e-19)	12
0.0115        	rho           	1.399127e+00	(1.142132e-02 1.426081e-02 2.651029e-20)	5	5.037775e+00	(2.933524e-01 8.044846e-02 2.170147e-19)	12
0.0115        	p             	9.990062e-01	(1.142132e-02 1.426081e-02 2.651029e-20)	5	6.784132e+00	(2.933524e-01 8.044846e-02 2.170147e-19)	12
0.01175       	rho           	1.399189e+00	(1.142132e-02 1.426081e-02 2.651029e-20)	5	5.043724e+00	(2.933524e-01 8.044846e-02 2.170147e-19)	12
0.01175       	p             	9.990583e-01	(1.142132e-02 1.426081e-02 2.651029e-20)	5	6.797760e+00	(2.933524e-01 8.044846e-02 2.170147e-19)	12
0.012         	rho           	1.399247e+00	(1.142132e-02 1.426081e-02 2.651029e-20)	5	5.046769e+00	(2.933524e-01 8.044846e-02 2.170147e-19)	12
0.012         	p             	9.991073e-01	(1.142132e-02 1.426081e-02 2.651029e-20)	5	6.805443e+00	(2.933524e-01 8.044846e-02 2.170147e-19)	12
0.01225       	rho           	1.399300e+00	(1.142132e-02 1.426081e-02 2.651029e-20)	5	5.046811e+00	(2.933524e-01 8.044846e-02 2.170147e-19)	12
0.01225       	p             	9.991511e-01	(1.142132e-02 1.426081e-02 2.651029e-20)	5	6.807002e+00	(2.933524e-01 8.044846e-02 2.170147e-19)	12
0.0125        	rho           	1.399343e+00	(1.142132e-02 1.426081e-02 2.651029e-20)	5	5.046192e+00	(2.857329e-01 7.845785e-02 5.005406e-20)	12
0.0125        	p             	9.991873e-01	(1.142132e-02 1.426081e-02 2.651029e-20)	5	6.805254e+00	(2.857329e-01 7.845785e-02 5.005406e-20)	12
0.01275       	rho           	1.399376e+00	(1.142132e-02 1.426081e-02 2.651029e-20)	5	5.044996e+00	(2.704938e-01 7.447662e-02 2.269944e-19)	12
0.01275       	p             	9.992145e-01	(1.142132e-02 1.426081e-02 2.651029e-20)	5	6.800536e+00	(2.704938e-01 7.447662e-02 2.269944e-19)	12
0.013         	rho           	1.399397e+00	(1.142132e-02 1.426081e-02 2.651029e-20)	5	5.047097e+00	(2.704938e-01 7.447662e-02 2.269944e-19)	12
0.013         	p             	9.992319e-01	(1.142132e-02 1.426081e-02 2.651029e-20)	5	6.806122e+00	(2.704938e-01 7.447662e-02 2.269944e-19)	12
0.01325       	rho           	1.399405e+00	(1.142132e-02 1.426081e-02 2.651029e-20)	5	5.046199e+00	(2.704938e-01 7.447662e-02 2.269944e-19)	12
0.01325       	p             	9.992393e-01	(1.142132e-02 1.426081e-02 2.651029e-20)	5	6.805687e+00	(2.704938e-01 7.447662e-02 2.269944e-19)	12
0.0135        	rho           	1.399403e+00	(1.142132e-02 1.426081e-02 2.651029e-20)	5	5.045015e+00	(2.552546e-01 7.049537e-02 1.751648e-19)	12
0.0135        	p             	9.992371e-01	(1.142132e-02 1.426081e-02 2.651029e-20)	5	6.801418e+00	(2.552546e-01 7.049537e-02 1.751648e-19)	12
0.01375       	rho           	1.399389e+00	(1.142132e-02 1.426081e-02 2.651029e-20)	5	5.046037e+00	(2.552546e-01 7.049537e-02 1.751648e-19)	12
0.01375       	p             	9.992262e-01	(1.142132e-02 1.426081e-02 2.651029e-20)	5	6.804723e+00	(2.552546e-01 7.049537e-02 1.751648e-19)	12
0.014         	rho           	1.399367e+00	(1.142132e-02 1.426081e-02 2.651029e-20)	5	5.044371e+00	(2.552546e-01 7.049537e-02 1.751648e-19)	12
0.014         	p             	9.992081e-01	(1.142132e-02 1.426081e-02 2.651029e-20)	5	6.802655e+00	(2.552546e-01 7.049537e-02 1.751648e-19)	12
0.01425       	rho           	1.399338e+00	(1.142132e-02 1.426081e-02 2.651029e-20)	5	5.044719e+00	(2.400153e-01 6.651410e-02 -8.719166e-20)	13
0.01425       	p             	9.991842e-01	(1.142132e-02 1.426081e-02 2.651029e-20)	5	6.801572e+00	(2.400153e-01 6.651410e-02 -8.719166e-20)	13
0.0145        	rho           	1.399304e+00	(1.142132e-02 1.426081e-02 2.651029e-20)	5	5.044746e+00	(2.400153e-01 6.651410e-02 -8.719166e-20)	13
0.0145        	p             	9.991563e-01	(1.142132e-02 1.426081e-02 2.651029e-20)	5	6.802797e+00	(2.400153e-01 6.651410e-02 -8.719166e-20)	13
0.01475       	rho           	1.399267e+00	(1.142132e-02 1.426081e-02 2.651029e-20)	5	5.043200e+00	(2.323956e-01 6.452346e-02 -1.323114e-19)	13
0.01475       	p             	9.991259e-01	(1.142132e-02 1.426081e-02 2.651029e-20)	5	6.799709e+00	(2.323956e-01 6.452346e-02 -1.323114e-19)	13
0.015         	rho           	1.399229e+00	(1.142132e-02 1.426081e-02 2.651029e-20)	5	5.044261e+00	(2.247759e-01 6.253282e-02 5.772794e-20)	13
0.015         	p             	9.990945e-01	(1.142132e-02 1.426081e-02 2.651029e-20)	5	6.801304e+00	(2.247759e-01 6.253282e-02 5.772794e-20)	13
0.01525       	rho           	1.399192e+00	(1.142132e-02 1.426081e-02 2.651029e-20)	5	5.043453e+00	(2.247759e-01 6.253282e-02 5.772794e-20)	13
0.01525       	p             	9.990634e-01	(1.142132e-02 1.426081e-02 2.651029e-20)	5	6.800792e+00	(2.247759e-01 6.253282e-02 5.772794e-20)	13
0.0155        	rho           	1.399156e+00	(1.142132e-02 1.426081e-02 2.651029e-20)	5	5.043222e+00	(2.095365e-01 5.855152e-02 8.084700e-21)	13
0.0155        	p             	9.990335e-01	(1.142132e-02 1.426081e-02 2.651029e-20)	5	6.799648e+00	(2.171562e-01 6.054217e-02 4.403930e-21)	13
0.01575       	rho           	1.399122e+00	(1.142132e-02 1.426081e-02 2.651029e-20)	5	5.043701e+00	(2.095365e-01 5.855152e-02 8.084700e-21)	13
0.01575       	p             	9.990057e-01	(1.142132e-02 1.426081e-02 2.651029e-20)	5	6.800748e+00	(2.095365e-01 5.855152e-02 8.084700e-21)	13
0.016         	rho           	1.399092e+00	(1.142132e-02 1.426081e-02 2.651029e-20)	5	5.043320e+00	(2.019168e-01 5.656086e-02 -1.778972e-20)	13
0.016         	p             	9.989804e-01	(1.142132e-02 1.426081e-02 2.651029e-20)	5	6.799763e+00	(2.019168e-01 5.656086e-02 -1.778972e-20)	13
0.01625       	rho           	1.399058e+00	(5.714054e-02 3.244692e-02 3.885475e-19)	4	5.043260e+00	(1.942971e-01 5.457020e-02 1.160424e-20)	8
0.01625       	p             	9.988923e-01	(5.714054e-02 3.244692e-02 3.885475e-19)	4	6.799291e+00	(1.942971e-01 5.457020e-02 1.160424e-20)	8
0.0165        	rho           	1.398954e+00	(5.714054e-02 3.244692e-02 3.885475e-19)	4	5.043037e+00	(1.942971e-01 5.457020e-02 1.160424e-20)	8
0.0165        	p             	9.987791e-01	(5.714054e-02 3.244692e-02 3.885475e-19)	4	6.799894e+00	(1.942971e-01 5.457020e-02 1.160424e-20)	8
0.01675       	rho           	1.398861e+00	(5.714054e-02 3.244692e-02 3.885475e-19)	4	5.043045e+00	(1.866773e-01 5.257954e-02 1.900131e-20)	8
0.01675       	p             	9.986798e-01	(5.714054e-02 3.244692e-02 3.885475e-19)	4	6.799689e+00	(1.866773e-01 5.257954e-02 1.900131e-20)	8
0.017         	rho           	1.398779e+00	(5.714054e-02 3.244692e-02 3.885475e-19)	4	5.043081e+00	(1.790576e-01 5.058888e-02 6.803394e-21)	8
0.017         	p             	9.985925e-01	(5.714054e-02 3.244692e-02 3.885475e-19)	4	6.799506e+00	(1.790576e-01 5.058888e-02 6.803394e-21)	8
0.01725       	rho           	1.398707e+00	(5.714054e-02 3.244692e-02 3.885475e-19)	4	5.042813e+00	(1.714378e-01 4.859821e-02 -1.384083e-19)	8
0.01725       	p             	9.985152e-01	(5.714054e-02 3.244692e-02 3.885475e-19)	4	6.798889e+00	(1.790576e-01 5.058888e-02 6.803394e-21)	8
0.0175        	rho           	1.398642e+00	(5.714054e-02 3.244692e-02 3.885475e-19)	4	5.042584e+00	(1.638181e-01 4.660754e-02 4.507046e-19)	8
0.0175        	p             	9.984463e-01	(5.714054e-02 3.244692e-02 3.885475e-19)	4	6.799228e+00	(1.714378e-01 4.859821e-02 -1.384083e-19)	8
0.01775       	rho           	1.398583e+00	(5.714054e-02 3.244692e-02 3.885475e-19)	4	5.042943e+00	(1.638181e-01 4.660754e-02 4.507046e-19)	8
0.01775       	p             	9.983843e-01	(5.714054e-02 3.244692e-02 3.885475e-19)	4	6.799590e+00	(1.638181e-01 4.660754e-02 4.507046e-19)	8
0.018         	rho           	1.398531e+00	(5.714054e-02 3.244692e-02 3.885475e-19)	4	5.043473e+00	(1.561983e-01 4.461687e-02 1.458306e-19)	8
0.018         	p             	9.983283e-01	(5.714054e-02 3.244692e-02 3.885475e-19)	4	6.800179e+00	(1.561983e-01 4.461687e-02 1.458306e-19)	8
0.01825       	rho           	1.398484e+00	(5.714054e-02 3.244692e-02 3.885475e-19)	4	5.043984e+00	(1.485785e-01 4.262620e-02 2.023300e-19)	8
0.01825       	p             	9.982773e-01	(5.714054e-02 3.244692e-02 3.885475e-19)	4	6.800847e+00	(1.485785e-01 4.262620e-02 2.023300e-19)	8
0.0185        	rho           	1.398441e+00	(5.714054e-02 3.244692e-02 3.885475e-19)	4	5.043798e+00	(1.485785e-01 4.262620e-02 2.023300e-19)	8
0.0185        	p             	9.982310e-01	(5.714054e-02 3.244692e-02 3.885475e-19)	4	6.801450e+00	(1.485785e-01 4.262620e-02 2.023300e-19)	8
0.01875       	rho           	1.398402e+00	(5.714054e-02 3.244692e-02 3.885475e-19)	4	5.043014e+00	(1.409587e-01 4.063552e-02 9.734304e-20)	8
0.01875       	p             	9.981889e-01	(5.714054e-02 3.244692e-02 3.885475e-19)	4	6.800161e+00	(1.409587e-01 4.063552e-02 9.734304e-20)	8
0.019         	rho           	1.398369e+00	(5.714054e-02 3.244692e-02 3.885475e-19)	4	5.041203e+00	(1.409587e-01 4.063552e-02 9.734304e-20)	8
0.019         	p             	9.981522e-01	(5.714054e-02 3.244692e-02 3.885475e-19)	4	6.797604e+00	(1.409587e-01 4.063552e-02 9.734304e-20)	8
0.01925       	rho           	1.398342e+00	(5.714054e-02 3.244692e-02 3.885475e-19)	4	5.038258e+00	(1.333389e-01 3.864485e-02 -1.708885e-19)	8
0.01925       	p             	9.981229e-01	(5.714054e-02 3.244692e-02 3.885475e-19)	4	6.792579e+00	(1.333389e-01 3.864485e-02 -1.708885e-19)	8
0.0195        	rho           	1.398320e+00	(5.714054e-02 3.244692e-02 3.885475e-19)	4	5.034680e+00	(1.333389e-01 3.864485e-02 -1.708885e-19)	8
0.0195        	p             	9.980998e-01	(5.714054e-02 3.244692e-02 3.885475e-19)	4	6.786563e+00	(1.333389e-01 3.864485e-02 -1.708885e-19)	8
0.01975       	rho           	1.398303e+00	(5.714054e-02 3.244692e-02 3.885475e-19)	4	5.029599e+00	(1.333389e-01 3.864485e-02 -1.708885e-19)	8
0.01975       	p             	9.980820e-01	(5.714054e-02 3.244692e-02 3.885475e-19)	4	6.777522e+00	(1.333389e-01 3.864485e-02 -1.708885e-19)	8
0.02          	rho           	1.398291e+00	(5.714054e-02 3.244692e-02 3.885475e-19)	4	5.022995e+00	(1.333389e-01 3.864485e-02 -1.708885e-19)	8
0.02          	p             	9.980684e-01	(5.714054e-02 3.244692e-02 3.885475e-19)	4	6.765439e+00	(1.333389e-01 3.864485e-02 -1.708885e-19)	8
0.02025       	rho           	1.398281e+00	(5.714054e-02 3.244692e-02 3.885475e-19)	4	5.014837e+00	(1.333389e-01 3.864485e-02 -1.708885e-19)	8
0.02025       	p             	9.980584e-01	(5.714054e-02 3.244692e-02 3.885475e-19)	4	6.750271e+00	(1.333389e-01 3.864485e-02 -1.708885e-19)	8
0.0205        	rho           	1.398274e+00	(5.714054e-02 3.244692e-02 3.885475e-19)	4	5.005077e+00	(1.333389e-01 3.864485e-02 -1.708885e-19)	8
0.0205        	p             	9.980513e-01	(5.714054e-02 3.244692e-02 3.885475e-19)	4	6.731952e+00	(1.333389e-01 3.864485e-02 -1.708885e-19)	8
0.02075       	rho           	1.398270e+00	(5.714054e-02 3.244692e-02 3.885475e-19)	4	4.993651e+00	(1.333389e-01 3.864485e-02 -1.708885e-19)	8
0.02075       	p             	9.980465e-01	(5.714054e-02 3.244692e-02 3.885475e-19)	4	6.710391e+00	(1.333389e-01 3.864485e-02 -1.708885e-19)	8
0.021         	rho           	1.398267e+00	(5.714054e-02 3.244692e-02 3.885475e-19)	4	4.980480e+00	(1.333389e-01 3.864485e-02 -1.708885e-19)	8
0.021         	p             	9.980435e-01	(5.714054e-02 3.244692e-02 3.885475e-19)	4	6.685463e+00	(1.333389e-01 3.864485e-02 -1.708885e-19)	8
0.02125       	rho           	1.398265e+00	(5.714054e-02 3.244692e-02 3.885475e-19)	4	4.965462e+00	(1.333389e-01 3.864485e-02 -1.708885e-19)	8
0.02125       	p             	9.980418e-01	(5.714054e-02 3.244692e-02 3.885475e-19)	4	6.657002e+00	(1.333389e-01 3.864485e-02 -1.708885e-19)	8
0.0215        	rho           	1.398264e+00	(5.714054e-02 3.244692e-02 3.885475e-19)	4	4.948481e+00	(1.333389e-01 3.864485e-02 -1.708885e-19)	8
0.0215        	p             	9.980410e-01	(5.714054e-02 3.244692e-02 3.885475e-19)	4	6.624771e+00	(1.333389e-01 3.864485e-02 -1.708885e-19)	8
0.02175       	rho           	1.398264e+00	(5.714054e-02 3.244692e-02 3.885475e-19)	4	4.929469e+00	(1.333389e-01 3.864485e-02 -1.708885e-19)	8
0.02175       	p             	9.980409e-01	(5.714054e-02 3.244692e-02 3.885475e-19)	4	6.588600e+00	(1.333389e-01 3.864485e-02 -1.708885e-19)	8
0.022         	rho           	1.398264e+00	(5.714054e-02 3.244692e-02 3.885475e-19)	4	4.911445e+00	(8.000010e-02 2.471006e-02 1.127025e-19)	4
0.022         	p             	9.980411e-01	(5.714054e-02 3.244692e-02 3.885475e-19)	4	6.548733e+00	(1.333389e-01 3.864485e-02 -1.708885e-19)	8
0.02225       	rho           	1.398265e+00	(5.714054e-02 3.244692e-02 3.885475e-19)	4	4.929248e+00	(8.000010e-02 2.471006e-02 1.127025e-19)	4
0.02225       	p             	9.980414e-01	(5.714054e-02 3.244692e-02 3.885475e-19)	4	6.514035e+00	(8.000010e-02 2.471006e-02 1.127025e-19)	4
0.0225        	rho           	1.398266e+00	(5.714054e-02 3.244692e-02 3.885475e-19)	4	4.946853e+00	(8.000010e-02 2.471006e-02 1.127025e-19)	4
0.0225        	p             	9.980435e-01	(5.714054e-02 3.244692e-02 3.885475e-19)	4	6.549575e+00	(8.000010e-02 2.471006e-02 1.127025e-19)	4
0.02275       	rho           	1.398271e+00	(5.714054e-02 3.244692e-02 3.885475e-19)	4	4.963825e+00	(8.000010e-02 2.471006e-02 1.127025e-19)	4
0.02275       	p             	9.980490e-01	(5.714054e-02 3.244692e-02 3.885475e-19)	4	6.583875e+00	(8.000010e-02 2.471006e-02 1.127025e-19)	4
0.023         	rho           	1.398277e+00	(5.714054e-02 3.244692e-02 3.885475e-19)	4	4.979859e+00	(8.000010e-02 2.471006e-02 1.127025e-19)	4
0.023         	p             	9.980571e-01	(5.714054e-02 3.244692e-02 3.885475e-19)	4	6.616356e+00	(8.000010e-02 2.471006e-02 1.127025e-19)	4
0.02325       	rho           	1.398286e+00	(5.714054e-02 3.244692e-02 3.885475e-19)	4	4.994824e+00	(8.000010e-02 2.471006e-02 1.127025e-19)	4
0.02325       	p             	9.980670e-01	(5.714054e-02 3.244692e-02 3.885475e-19)	4	6.646756e+00	(8.000010e-02 2.471006e-02 1.127025e-19)	4
0.0235        	rho           	1.398295e+00	(5.714054e-02 3.244692e-02 3.885475e-19)	4	5.008710e+00	(8.000010e-02 2.471006e-02 1.127025e-19)	4
0.0235        	p             	9.980780e-01	(5.714054e-02 3.244692e-02 3.885475e-19)	4	6.675034e+00	(8.000010e-02 2.471006e-02 1.127025e-19)	4
0.02375       	rho           	1.398304e+00	(5.714054e-02 3.244692e-02 3.885475e-19)	4	5.021540e+00	(8.000010e-02 2.471006e-02 1.127025e-19)	4
0.02375       	p             	9.980894e-01	(5.714054e-02 3.244692e-02 3.885475e-19)	4	6.701210e+00	(8.000010e-02 2.471006e-02 1.127025e-19)	4
0.024         	rho           	1.398313e+00	(5.714054e-02 3.244692e-02 3.885475e-19)	4	5.033313e+00	(8.000010e-02 2.471006e-02 1.127025e-19)	4
0.024         	p             	9.981005e-01	(5.714054e-02 3.244692e-02 3.885475e-19)	4	6.725266e+00	(8.000010e-02 2.471006e-02 1.127025e-19)	4
0.02425       	rho           	1.398322e+00	(5.714054e-02 3.244692e-02 3.885475e-19)	4	5.044011e+00	(8.000010e-02 2.471006e-02 1.127025e-19)	4
0.02425       	p             	9.981107e-01	(5.714054e-02 3.244692e-02 3.885475e-19)	4	6.747148e+00	(8.000010e-02 2.471006e-02 1.127025e-19)	4
0.0245        	rho           	1.398329e+00	(5.714054e-02 3.244692e-02 3.885475e-19)	4	5.053617e+00	(8.000010e-02 2.471006e-02 1.127025e-19)	4
0.0245        	p             	9.981196e-01	(5.714054e-02 3.244692e-02 3.885475e-19)	4	6.766808e+00	(8.000010e-02 2.471006e-02 1.127025e-19)	4
0.02475       	rho           	1.398334e+00	(5.714054e-02 3.244692e-02 3.885475e-19)	4	5.062135e+00	(8.000010e-02 2.471006e-02 1.127025e-19)	4
0.02475       	p             	9.981266e-01	(5.714054e-02 3.244692e-02 3.885475e-19)	4	6.784241e+00	(8.000010e-02 2.471006e-02 1.127025e-19)	4
0.025         	rho           	1.398338e+00	(5.714054e-02 3.244692e-02 3.885475e-19)	4	5.069595e+00	(8.000010e-02 2.471006e-02 1.127025e-19)	4
0.025         	p             	9.981314e-01	(5.714054e-02 3.244692e-02 3.885475e-19)	4	6.799300e+00	(8.000010e-02 2.471006e-02 1.127025e-19)	4
0.02525       	rho           	1.398340e+00	(5.714054e-02 3.244692e-02 3.885475e-19)	4	5.076095e+00	(8.761994e-02 2.670075e-02 -3.648902e-20)	9
0.02525       	p             	9.981338e-01	(5.714054e-02 3.244692e-02 3.885475e-19)	4	6.818629e+00	(8.761994e-02 2.670075e-02 -3.648902e-20)	9
0.0255        	rho           	1.398340e+00	(5.714054e-02 3.244692e-02 3.885475e-19)	4	5.085234e+00	(8.761994e-02 2.670075e-02 -3.648902e-20)	9
0.0255        	p             	9.981336e-01	(5.714054e-02 3.244692e-02 3.885475e-19)	4	6.837710e+00	(8.761994e-02 2.670075e-02 -3.648902e-20)	9
0.02575       	rho           	1.398337e+00	(5.714054e-02 3.244692e-02 3.885475e-19)	4	5.093448e+00	(8.761994e-02 2.670075e-02 -3.648902e-20)	9
0.02575       	p             	9.981307e-01	(5.714054e-02 3.244692e-02 3.885475e-19)	4	6.855037e+00	(8.761994e-02 2.670075e-02 -3.648902e-20)	9
0.026         	rho           	1.398333e+00	(5.714054e-02 3.244692e-02 3.885475e-19)	4	5.100911e+00	(8.761994e-02 2.670075e-02 -3.648902e-20)	9
0.026         	p             	9.981253e-01	(5.714054e-02 3.244692e-02 3.885475e-19)	4	6.871114e+00	(8.761994e-02 2.670075e-02 -3.648902e-20)	9