# Region type : patch obstacle
# Faces       : 40
# Area        : 3.155522e-03
# Scale factor: 1.000000e+00
# Time        	areaAverage(p)
0.00025       	1.089130e+00
0.0005        	1.180371e+00
0.00075       	1.273747e+00
0.001         	1.369273e+00
0.00125       	1.466949e+00
0.0015        	1.566767e+00
0.00175       	1.668709e+00
0.002         	1.772741e+00
0.00225       	1.878702e+00
0.0025        	1.986333e+00
0.00275       	2.095372e+00
0.003         	2.205558e+00
0.00325       	2.316627e+00
0.0035        	2.428323e+00
0.00375       	2.540392e+00
0.004         	2.652592e+00
0.00425       	2.764723e+00
0.0045        	2.876599e+00
0.00475       	2.988047e+00
0.005         	3.098902e+00
0.00525       	3.209005e+00
0.0055        	3.318207e+00
0.00575       	3.426362e+00
0.006         	3.533332e+00
0.00625       	3.638985e+00
0.0065        	3.743193e+00
0.00675       	3.845831e+00
0.007         	3.946776e+00
0.00725       	4.045910e+00
0.0075        	4.143121e+00
0.00775       	4.238300e+00
0.008         	4.331345e+00
0.00825       	4.422159e+00
0.0085        	4.510649e+00
0.00875       	4.596725e+00
0.009         	4.680302e+00
0.00925       	4.761300e+00
0.0095        	4.839642e+00
0.00975       	4.915247e+00
0.01          	4.988045e+00
0.01025       	5.057968e+00
0.0105        	5.124950e+00
0.01075       	5.188939e+00
0.011         	5.249884e+00
0.01125       	5.307744e+00
0.0115        	5.362482e+00
0.01175       	5.414067e+00
0.012         	5.462476e+00
0.01225       	5.507689e+00
0.0125        	5.549691e+00
0.01275       	5.588470e+00
0.013         	5.624012e+00
0.01325       	5.656308e+00
0.0135        	5.685353e+00
0.01375       	5.711146e+00
0.014         	5.733692e+00
0.01425       	5.752999e+00
0.0145        	5.769077e+00
0.01475       	5.781934e+00
0.015         	5.791549e+00
0.01525       	5.797917e+00
0.0155        	5.801107e+00
0.01575       	5.801273e+00
0.016         	5.798404e+00
0.01625       	5.792631e+00
0.0165        	5.784094e+00
0.01675       	5.772971e+00
0.017         	5.759366e+00
0.01725       	5.743470e+00
0.0175        	5.725418e+00
0.01775       	5.705465e+00
0.018         	5.683843e+00
0.01825       	5.660632e+00
0.0185        	5.636026e+00
0.01875       	5.610207e+00
0.019         	5.583309e+00
0.01925       	5.555470e+00
0.0195        	5.526890e+00
0.01975       	5.497655e+00
0.02          	5.467880e+00
0.02025       	5.437642e+00
0.0205        	5.407067e+00
0.02075       	5.376230e+00
0.021         	5.345235e+00
0.02125       	5.314147e+00
0.0215        	5.283075e+00
0.02175       	5.252070e+00
0.022         	5.221231e+00
0.02225       	5.190612e+00
0.0225        	5.160297e+00
0.02275       	5.130340e+00
0.023         	5.100810e+00
0.02325       	5.071781e+00
0.0235        	5.043303e+00
0.02375       	5.015470e+00
0.024         	4.988328e+00
0.02425       	4.961984e+00
0.0245        	4.936483e+00
0.02475       	4.911911e+00
0.025         	4.888301e+00
0.02525       	4.865729e+00
0.0255        	4.844206e+00
0.02575       	4.823793e+00
0.026         	4.804477e+00
0.02625       	4.786278e+00
0.0265        	4.769200e+00
0.02675       	4.753257e+00
0.027         	4.738419e+00
0.02725       	4.724682e+00
0.0275        	4.712011e+00
0.02775       	4.700387e+00
0.028         	4.689741e+00
0.02825       	4.680043e+00
0.0285        	4.671213e+00
0.02875       	4.663226e+00
0.029         	4.656039e+00
0.02925       	4.649605e+00
0.0295        	4.643875e+00
0.02975       	4.638780e+00
0.03          	4.634270e+00
0.03025       	4.630308e+00
0.0305        	4.626856e+00
0.03075       	4.623865e+00
0.031         	4.621300e+00
0.03125       	4.619156e+00
0.0315        	4.617393e+00
0.03175       	4.615973e+00
0.032         	4.614871e+00
0.03225       	4.614060e+00
0.0325        	4.613496e+00
0.03275       	4.613157e+00
0.033         	4.613039e+00
0.03325       	4.613123e+00
0.0335        	4.613387e+00
0.03375       	4.613812e+00
0.034         	4.614377e+00
0.03425       	4.615060e+00
0.0345        	4.615854e+00
0.03475       	4.616758e+00
0.035         	4.617747e+00
0.03525       	4.618807e+00
0.0355        	4.619934e+00
0.03575       	4.621115e+00
0.036         	4.622329e+00
0.03625       	4.623580e+00
0.0365        	4.624866e+00
0.03675       	4.626172e+00
0.037         	4.627487e+00
0.03725       	4.628809e+00
0.0375        	4.630132e+00
0.03775       	4.631439e+00
0.038         	4.632730e+00
0.03825       	4.633999e+00
0.0385        	4.635239e+00
0.03875       	4.636447e+00
0.039         	4.637626e+00
0.03925       	4.638780e+00
0.0395        	4.639911e+00
0.03975       	4.641031e+00
0.04          	4.642136e+00
0.04025       	4.643218e+00
0.0405        	4.644269e+00
0.04075       	4.645287e+00
0.041         	4.646276e+00
0.04125       	4.647239e+00
0.0415        	4.648174e+00
0.04175       	4.649072e+00
0.042         	4.649935e+00
0.04225       	4.650765e+00
0.0425        	4.651560e+00
0.04275       	4.652309e+00
0.043         	4.653005e+00
0.04325       	4.653651e+00
0.0435        	4.654245e+00
0.04375       	4.654787e+00
0.044         	4.655277e+00
0.04425       	4.655718e+00
0.0445        	4.656113e+00
0.04475       	4.656463e+00
0.045         	4.656772e+00
0.04525       	4.657046e+00
0.0455        	4.657289e+00
0.04575       	4.657502e+00
0.046         	4.657684e+00
0.04625       	4.657839e+00
0.0465        	4.657971e+00
0.04675       	4.658087e+00
0.047         	4.658190e+00
0.04725       	4.658285e+00
0.0475        	4.658378e+00
0.04775       	4.658474e+00
0.048         	4.658581e+00
0.04825       	4.658704e+00
0.0485        	4.658848e+00
0.04875       	4.659016e+00
0.049         	4.659212e+00
0.04925       	4.659441e+00
0.0495        	4.659704e+00
0.04975       	4.660001e+00
0.05          	4.660334e+00
0.05025       	4.660703e+00
0.0505        	4.661097e+00
0.05075       	4.661509e+00
0.051         	4.661936e+00
0.05125       	4.662375e+00
0.0515        	4.662821e+00
0.05175       	4.663271e+00
0.052         	4.663726e+00
0.05225       	4.664190e+00
0.0525        	4.664664e+00
0.05275       	4.665153e+00
0.053         	4.665656e+00
0.05325       	4.666172e+00
0.0535        	4.666707e+00
0.05375       	4.667263e+00
0.054         	4.667843e+00
0.05425       	4.668447e+00
0.0545        	4.669075e+00
0.05475       	4.669726e+00
0.055         	4.670399e+00
0.05525       	4.671094e+00
0.0555        	4.671810e+00
0.05575       	4.672547e+00
0.056         	4.673305e+00
0.05625       	4.674084e+00
0.0565        	4.674883e+00
0.05675       	4.675700e+00
0.057         	4.676531e+00
0.05725       	4.677378e+00
0.0575        	4.678239e+00
0.05775       	4.679118e+00
0.058         	4.680006e+00
0.05825       	4.680894e+00
0.0585        	4.681778e+00
0.05875       	4.682656e+00
0.059         	4.683524e+00
0.05925       	4.684382e+00
0.0595        	4.685232e+00
0.05975       	4.686071e+00
0.06          	4.686902e+00
0.06025       	4.687725e+00
0.0605        	4.688542e+00
0.06075       	4.689353e+00
0.061         	4.690161e+00
0.06125       	4.690965e+00
0.0615        	4.691766e+00
0.06175       	4.692564e+00
0.062         	4.693357e+00
0.06225       	4.694145e+00
0.0625        	4.694923e+00
0.06275       	4.695689e+00
0.063         	4.696439e+00
0.06325       	4.697170e+00
0.0635        	4.697874e+00
0.06375       	4.698548e+00
0.064         	4.699194e+00
0.06425       	4.699814e+00
0.0645        	4.700406e+00
0.06475       	4.700977e+00
0.065         	4.701541e+00
0.06525       	4.702099e+00
0.0655        	4.702652e+00
0.06575       	4.703203e+00
0.066         	4.703757e+00
0.06625       	4.704316e+00
0.0665        	4.704882e+00
0.06675       	4.705455e+00
0.067         	4.706032e+00
0.06725       	4.706612e+00
0.0675        	4.707196e+00
0.06775       	4.707790e+00
0.068         	4.708393e+00
0.06825       	4.709007e+00
0.0685        	4.709636e+00
0.06875       	4.710281e+00
0.069         	4.710940e+00
0.06925       	4.711606e+00
0.0695        	4.712278e+00
0.06975       	4.712960e+00
0.07          	4.713662e+00
0.07025       	4.714407e+00
0.0705        	4.715188e+00
0.07075       	4.715998e+00
0.071         	4.716834e+00
0.07125       	4.717691e+00
0.0715        	4.718566e+00
0.07175       	4.719457e+00
0.072         	4.720360e+00
0.07225       	4.721273e+00
0.0725        	4.722192e+00
0.07275       	4.723115e+00
0.073         	4.724038e+00
0.07325       	4.724962e+00
0.0735        	4.725888e+00
0.07375       	4.726815e+00
0.074         	4.727738e+00
0.07425       	4.728652e+00
0.0745        	4.729547e+00
0.07475       	4.730416e+00
0.075         	4.731251e+00
0.07525       	4.732047e+00
0.0755        	4.732800e+00
0.07575       	4.733505e+00
0.076         	4.734166e+00
0.07625       	4.734783e+00
0.0765        	4.735360e+00
0.07675       	4.735901e+00
0.077         	4.736424e+00
0.07725       	4.736933e+00
0.0775        	4.737427e+00
0.07775       	4.737912e+00
0.078         	4.738391e+00
0.07825       	4.738865e+00
0.0785        	4.739336e+00
0.07875       	4.739800e+00
0.079         	4.740255e+00
0.07925       	4.740702e+00
0.0795        	4.741139e+00
0.07975       	4.741566e+00
0.08          	4.741984e+00
0.08025       	4.742396e+00
0.0805        	4.742804e+00
0.08075       	4.743209e+00
0.081         	4.743614e+00
0.08125       	4.744019e+00
0.0815        	4.744426e+00
0.08175       	4.744834e+00
0.082         	4.745247e+00
0.08225       	4.745690e+00
0.0825        	4.746162e+00
0.08275       	4.746657e+00
0.083         	4.747170e+00
0.08325       	4.747699e+00
0.0835        	4.748243e+00
0.08375       	4.748804e+00
0.084         	4.749379e+00
0.08425       	4.749963e+00
0.0845        	4.750547e+00
0.08475       	4.751123e+00
0.085         	4.751681e+00
0.08525       	4.752217e+00
0.0855        	4.752729e+00
0.08575       	4.753218e+00
0.086         	4.753687e+00
0.08625       	4.754142e+00
0.0865        	4.754588e+00
0.08675       	4.755027e+00
0.087         	4.755466e+00
0.08725       	4.755905e+00
0.0875        	4.756343e+00
0.08775       	4.756778e+00
0.088         	4.757210e+00
0.08825       	4.757636e+00
0.0885        	4.758056e+00
0.08875       	4.758467e+00
0.089         	4.758870e+00
0.08925       	4.759263e+00
0.0895        	4.759644e+00
0.08975       	4.760014e+00
0.09          	4.760371e+00
0.09025       	4.760717e+00
0.0905        	4.761043e+00
0.09075       	4.761347e+00
0.091         	4.761629e+00
0.09125       	4.761885e+00
0.0915        	4.762110e+00
0.09175       	4.762304e+00
0.092         	4.762466e+00
0.09225       	4.762598e+00
0.0925        	4.762702e+00
0.09275       	4.762785e+00
0.093         	4.762855e+00
0.09325       	4.762915e+00
0.0935        	4.762966e+00
0.09375       	4.763006e+00
0.094         	4.763035e+00
0.09425       	4.763050e+00
0.0945        	4.763049e+00
0.09475       	4.763029e+00
0.095         	4.762989e+00
0.09525       	4.762925e+00
0.0955        	4.762835e+00
0.09575       	4.762715e+00
0.096         	4.762566e+00
0.09625       	4.762391e+00
0.0965        	4.762201e+00
0.09675       	4.762008e+00
0.097         	4.761824e+00
0.09725       	4.761656e+00
0.0975        	4.761510e+00
0.09775       	4.761390e+00
0.098         	4.761297e+00
0.09825       	4.761232e+00
0.0985        	4.761194e+00
0.09875       	4.761183e+00
0.099         	4.761202e+00
0.09925       	4.761255e+00
0.0995        	4.761343e+00
0.09975       	4.761469e+00
0.1           	4.761636e+00
0.10025       	4.761841e+00
0.1005        	4.762085e+00
0.10075       	4.762368e+00
0.101         	4.762687e+00
0.10125       	4.763038e+00
0.1015        	4.763417e+00
0.10175       	4.763818e+00
0.102         	4.764237e+00
0.10225       	4.764667e+00
0.1025        	4.765102e+00
0.10275       	4.765533e+00
0.103         	4.765950e+00
0.10325       	4.766346e+00
0.1035        	4.766713e+00
0.10375       	4.767044e+00
0.104         	4.767329e+00
0.10425       	4.767560e+00
0.1045        	4.767727e+00
0.10475       	4.767822e+00
0.105         	4.767848e+00
0.10525       	4.767821e+00
0.1055        	4.767753e+00
0.10575       	4.767649e+00
0.106         	4.767516e+00
0.10625       	4.767360e+00
0.1065        	4.767184e+00
0.10675       	4.766994e+00
0.107         	4.766795e+00
0.10725       	4.766585e+00
0.1075        	4.766364e+00
0.10775       	4.766133e+00
0.108         	4.765888e+00
0.10825       	4.765630e+00
0.1085        	4.765359e+00
0.10875       	4.765075e+00
0.109         	4.764778e+00
0.10925       	4.764471e+00
0.1095        	4.764159e+00
0.10975       	4.763849e+00
0.11          	4.763553e+00
0.11025       	4.763277e+00
0.1105        	4.763024e+00
0.11075       	4.762797e+00
0.111         	4.762598e+00
0.11125       	4.762430e+00
0.1115        	4.762298e+00
0.11175       	4.762203e+00
0.112         	4.762146e+00
0.11225       	4.762133e+00
0.1125        	4.762166e+00
0.11275       	4.762244e+00
0.113         	4.762366e+00
0.11325       	4.762533e+00
0.1135        	4.762747e+00
0.11375       	4.763004e+00
0.114         	4.763298e+00
0.11425       	4.763619e+00
0.1145        	4.763949e+00
0.11475       	4.764274e+00
0.115         	4.764578e+00
0.11525       	4.764849e+00
0.1155        	4.765085e+00
0.11575       	4.765286e+00
0.116         	4.765474e+00
0.11625       	4.765650e+00
0.1165        	4.765801e+00
0.11675       	4.765927e+00
0.117         	4.766022e+00
0.11725       	4.766084e+00
0.1175        	4.766118e+00
0.11775       	4.766129e+00
0.118         	4.766121e+00
0.11825       	4.766096e+00
0.1185        	4.766051e+00
0.11875       	4.765989e+00
0.119         	4.765908e+00
0.11925       	4.765808e+00
0.1195        	4.765683e+00
0.11975       	4.765534e+00
0.12          	4.765365e+00
0.12025       	4.765182e+00
0.1205        	4.764985e+00
0.12075       	4.764784e+00
0.121         	4.764584e+00
0.12125       	4.764405e+00
0.1215        	4.764262e+00
0.12175       	4.764144e+00
0.122         	4.764042e+00
0.12225       	4.763950e+00
0.1225        	4.763865e+00
0.12275       	4.763782e+00
0.123         	4.763695e+00
0.12325       	4.763602e+00
0.1235        	4.763506e+00
0.12375       	4.763408e+00
0.124         	4.763310e+00
0.12425       	4.763215e+00
0.1245        	4.763118e+00
0.12475       	4.763015e+00
0.125         	4.762899e+00
0.12525       	4.762772e+00
0.1255        	4.762637e+00
0.12575       	4.762493e+00
0.126         	4.762344e+00
0.12625       	4.762193e+00
0.1265        	4.762041e+00
0.12675       	4.761893e+00
0.127         	4.761763e+00
0.12725       	4.761656e+00
0.1275        	4.761576e+00
0.12775       	4.761523e+00
0.128         	4.761492e+00
0.12825       	4.761478e+00
0.1285        	4.761495e+00
0.12875       	4.761545e+00
0.129         	4.761624e+00
0.12925       	4.761728e+00
0.1295        	4.761854e+00
0.12975       	4.761993e+00
0.13          	4.762140e+00
0.13025       	4.762293e+00
0.1305        	4.762444e+00
0.13075       	4.762592e+00
0.131         	4.762738e+00
0.13125       	4.762882e+00
0.1315        	4.763029e+00
0.13175       	4.763176e+00
0.132         	4.763322e+00
0.13225       	4.763463e+00
0.1325        	4.763593e+00
0.13275       	4.763709e+00
0.133         	4.763808e+00
0.13325       	4.763882e+00
0.1335        	4.763935e+00
0.13375       	4.763994e+00
0.134         	4.764061e+00
0.13425       	4.764127e+00
0.1345        	4.764180e+00
0.13475       	4.764217e+00
0.135         	4.764234e+00
0.13525       	4.764226e+00
0.1355        	4.764190e+00
0.13575       	4.764121e+00
0.136         	4.764017e+00
0.13625       	4.763878e+00
0.1365        	4.763705e+00
0.13675       	4.763502e+00
0.137         	4.763275e+00
0.13725       	4.763028e+00
0.1375        	4.762767e+00
0.13775       	4.762503e+00
0.138         	4.762237e+00
0.13825       	4.761973e+00
0.1385        	4.761720e+00
0.13875       	4.761481e+00
0.139         	4.761259e+00
0.13925       	4.761059e+00
0.1395        	4.760893e+00
0.13975       	4.760766e+00
0.14          	4.760683e+00
0.14025       	4.760638e+00
0.1405        	4.760640e+00
0.14075       	4.760700e+00
0.141         	4.760824e+00
0.14125       	4.761013e+00
0.1415        	4.761270e+00
0.14175       	4.761591e+00
0.142         	4.761975e+00
0.14225       	4.762414e+00
0.1425        	4.762892e+00
0.14275       	4.763398e+00
0.143         	4.763921e+00
0.14325       	4.764449e+00
0.1435        	4.764973e+00
0.14375       	4.765481e+00
0.144         	4.765959e+00
0.14425       	4.766393e+00
0.1445        	4.766774e+00
0.14475       	4.767097e+00
0.145         	4.767370e+00
0.14525       	4.767580e+00
0.1455        	4.767732e+00
0.14575       	4.767835e+00
0.146         	4.767893e+00
0.14625       	4.767912e+00
0.1465        	4.767887e+00
0.14675       	4.767818e+00
0.147         	4.767707e+00
0.14725       	4.767552e+00
0.1475        	4.767358e+00
0.14775       	4.767128e+00
0.148         	4.766859e+00
0.14825       	4.766557e+00
0.1485        	4.766225e+00
0.14875       	4.765872e+00
0.149         	4.765523e+00
0.14925       	4.765173e+00
0.1495        	4.764819e+00
0.14975       	4.764460e+00
0.15          	4.764096e+00
0.15025       	4.763730e+00
0.1505        	4.763369e+00
0.15075       	4.763016e+00
0.151         	4.762675e+00
0.15125       	4.762357e+00
0.1515        	4.762064e+00
0.15175       	4.761796e+00
0.152         	4.761560e+00
0.15225       	4.761365e+00
0.1525        	4.761215e+00
0.15275       	4.761109e+00
0.153         	4.761051e+00
0.15325       	4.761045e+00
0.1535        	4.761092e+00
0.15375       	4.761189e+00
0.154         	4.761337e+00
0.15425       	4.761535e+00
0.1545        	4.761777e+00
0.15475       	4.762053e+00
0.155         	4.762358e+00
0.15525       	4.762684e+00
0.1555        	4.763020e+00
0.15575       	4.763359e+00
0.156         	4.763696e+00
0.15625       	4.764018e+00
0.1565        	4.764340e+00
0.15675       	4.764651e+00
0.157         	4.764941e+00
0.15725       	4.765207e+00
0.1575        	4.765444e+00
0.15775       	4.765656e+00
0.158         	4.765842e+00
0.15825       	4.766003e+00
0.1585        	4.766138e+00
0.15875       	4.766240e+00
0.159         	4.766310e+00
0.15925       	4.766349e+00
0.1595        	4.766358e+00
0.15975       	4.766337e+00
0.16          	4.766273e+00
0.16025       	4.766168e+00
0.1605        	4.766026e+00
0.16075       	4.765852e+00
0.161         	4.765642e+00
0.16125       	4.765411e+00
0.1615        	4.765171e+00
0.16175       	4.764971e+00
0.162         	4.764801e+00
0.16225       	4.764651e+00
0.1625        	4.764506e+00
0.16275       	4.764358e+00
0.163         	4.764206e+00
0.16325       	4.764050e+00
0.1635        	4.763888e+00
0.16375       	4.763720e+00
0.164         	4.763543e+00
0.16425       	4.763361e+00
0.1645        	4.763181e+00
0.16475       	4.763004e+00
0.165         	4.762828e+00
0.16525       	4.762645e+00
0.1655        	4.762453e+00
0.16575       	4.762256e+00
0.166         	4.762060e+00
0.16625       	4.761872e+00
0.1665        	4.761703e+00
0.16675       	4.761557e+00
0.167         	4.761438e+00
0.16725       	4.761353e+00
0.1675        	4.761301e+00
0.16775       	4.761288e+00
0.168         	4.761315e+00
0.16825       	4.761381e+00
0.1685        	4.761482e+00
0.16875       	4.761609e+00
0.169         	4.761752e+00
0.16925       	4.761909e+00
0.1695        	4.762084e+00
0.16975       	4.762286e+00
0.17          	4.762507e+00
0.17025       	4.762736e+00
0.1705        	4.762970e+00
0.17075       	4.763203e+00
0.171         	4.763433e+00
0.17125       	4.763657e+00
0.1715        	4.763873e+00
0.17175       	4.764076e+00
0.172         	4.764270e+00
0.17225       	4.764454e+00
0.1725        	4.764628e+00
0.17275       	4.764788e+00
0.173         	4.764926e+00
0.17325       	4.765043e+00
0.1735        	4.765135e+00
0.17375       	4.765200e+00
0.174         	4.765233e+00
0.17425       	4.765270e+00
0.1745        	4.765306e+00
0.17475       	4.765333e+00
0.175         	4.765344e+00
0.17525       	4.765330e+00
0.1755        	4.765286e+00
0.17575       	4.765205e+00
0.176         	4.765084e+00
0.17625       	4.764920e+00
0.1765        	4.764715e+00
0.17675       	4.764472e+00
0.177         	4.764195e+00
0.17725       	4.763888e+00
0.1775        	4.763561e+00
0.17775       	4.763220e+00
0.178         	4.762878e+00
0.17825       	4.762547e+00
0.1785        	4.762231e+00
0.17875       	4.761930e+00
0.179         	4.761647e+00
0.17925       	4.761385e+00
0.1795        	4.761144e+00
0.17975       	4.760928e+00
0.18          	4.760740e+00
0.18025       	4.760585e+00
0.1805        	4.760474e+00
0.18075       	4.760417e+00
0.181         	4.760421e+00
0.18125       	4.760488e+00
0.1815        	4.760621e+00
0.18175       	4.760823e+00
0.182         	4.761092e+00
0.18225       	4.761423e+00
0.1825        	4.761804e+00
0.18275       	4.762232e+00
0.183         	4.762695e+00
0.18325       	4.763179e+00
0.1835        	4.763671e+00
0.18375       	4.764160e+00
0.184         	4.764634e+00
0.18425       	4.765077e+00
0.1845        	4.765476e+00
0.18475       	4.765828e+00
0.185         	4.766144e+00
0.18525       	4.766410e+00
0.1855        	4.766619e+00
0.18575       	4.766777e+00
0.186         	4.766888e+00
0.18625       	4.766956e+00
0.1865        	4.766985e+00
0.18675       	4.766971e+00
0.187         	4.766921e+00
0.18725       	4.766837e+00
0.1875        	4.766720e+00
0.18775       	4.766565e+00
0.188         	4.766374e+00
0.18825       	4.766151e+00
0.1885        	4.765892e+00
0.18875       	4.765603e+00
0.189         	4.765298e+00
0.18925       	4.765001e+00
0.1895        	4.764706e+00
0.18975       	4.764406e+00
0.19          	4.764100e+00
0.19025       	4.763787e+00
0.1905        	4.763469e+00
0.19075       	4.763155e+00
0.191         	4.762842e+00
0.19125       	4.762531e+00
0.1915        	4.762234e+00
0.19175       	4.761954e+00
0.192         	4.761698e+00
0.19225       	4.761464e+00
0.1925        	4.761262e+00
0.19275       	4.761100e+00
0.193         	4.760979e+00
0.19325       	4.760897e+00
0.1935        	4.760859e+00
0.19375       	4.760871e+00
0.194         	4.760931e+00
0.19425       	4.761033e+00
0.1945        	4.761176e+00
0.19475       	4.761357e+00
0.195         	4.761573e+00
0.19525       	4.761819e+00
0.1955        	4.762097e+00
0.19575       	4.762399e+00
0.196         	4.762716e+00
0.19625       	4.763043e+00
0.1965        	4.763372e+00
0.19675       	4.763687e+00
0.197         	4.764004e+00
0.19725       	4.764311e+00
0.1975        	4.764595e+00
0.19775       	4.764856e+00
0.198         	4.765094e+00
0.19825       	4.765311e+00
0.1985        	4.765507e+00
0.19875       	4.765682e+00
0.199         	4.765828e+00
0.19925       	4.765946e+00
0.1995        	4.766038e+00
0.19975       	4.766102e+00
0.2           	4.766138e+00
0.20025       	4.766138e+00
0.2005        	4.766105e+00
0.20075       	4.766035e+00
0.201         	4.765929e+00
0.20125       	4.765784e+00
0.2015        	4.765604e+00
0.20175       	4.765397e+00
0.202         	4.765182e+00
0.20225       	4.764998e+00
0.2025        	4.764834e+00
0.20275       	4.764676e+00
0.203         	4.764512e+00
0.20325       	4.764340e+00
0.2035        	4.764159e+00
0.20375       	4.763968e+00
0.204         	4.763770e+00
0.20425       	4.763563e+00
0.2045        	4.763351e+00
0.20475       	4.763133e+00
0.205         	4.762912e+00
0.20525       	4.762689e+00
0.2055        	4.762464e+00
0.20575       	4.762238e+00
0.206         	4.762010e+00
0.20625       	4.761782e+00
0.2065        	4.761567e+00
0.20675       	4.761370e+00
0.207         	4.761195e+00
0.20725       	4.761049e+00
0.2075        	4.760936e+00
0.20775       	4.760859e+00
0.208         	4.760817e+00
0.20825       	4.760817e+00
0.2085        	4.760856e+00
0.20875       	4.760938e+00
0.209         	4.761061e+00
0.20925       	4.761222e+00
0.2095        	4.761411e+00
0.20975       	4.761625e+00
0.21          	4.761854e+00
0.21025       	4.762092e+00
0.2105        	4.762350e+00
0.21075       	4.762626e+00
0.211         	4.762913e+00
0.21125       	4.763205e+00
0.2115        	4.763496e+00
0.21175       	4.763780e+00
0.212         	4.764054e+00
0.21225       	4.764310e+00
0.2125        	4.764549e+00
0.21275       	4.764768e+00
0.213         	4.764964e+00
0.21325       	4.765135e+00
0.2135        	4.765278e+00
0.21375       	4.765395e+00
0.214         	4.765487e+00
0.21425       	4.765550e+00
0.2145        	4.765586e+00
0.21475       	4.765589e+00
0.215         	4.765584e+00
0.21525       	4.765580e+00
0.2155        	4.765566e+00
0.21575       	4.765529e+00
0.216         	4.765465e+00
0.21625       	4.765369e+00
0.2165        	4.765235e+00
0.21675       	4.765062e+00
0.217         	4.764850e+00
0.21725       	4.764601e+00
0.2175        	4.764320e+00
0.21775       	4.764010e+00
0.218         	4.763678e+00
0.21825       	4.763333e+00
0.2185        	4.762980e+00
0.21875       	4.762634e+00
0.219         	4.762299e+00
0.21925       	4.761978e+00
0.2195        	4.761676e+00
0.21975       	4.761395e+00
0.22          	4.761141e+00
0.22025       	4.760921e+00
0.2205        	4.760735e+00
0.22075       	4.760594e+00
0.221         	4.760505e+00
0.22125       	4.760469e+00
0.2215        	4.760489e+00
0.22175       	4.760569e+00
0.222         	4.760713e+00
0.22225       	4.760922e+00
0.2225        	4.761196e+00
0.22275       	4.761533e+00
0.223         	4.761921e+00
0.22325       	4.762353e+00
0.2235        	4.762823e+00
0.22375       	4.763313e+00
0.224         	4.763808e+00
0.22425       	4.764294e+00
0.2245        	4.764761e+00
0.22475       	4.765198e+00
0.225         	4.765591e+00
0.22525       	4.765950e+00
0.2255        	4.766269e+00
0.22575       	4.766542e+00
0.226         	4.766772e+00
0.22625       	4.766953e+00
0.2265        	4.767090e+00
0.22675       	4.767184e+00
0.227         	4.767236e+00
0.22725       	4.767246e+00
0.2275        	4.767210e+00
0.22775       	4.767137e+00
0.228         	4.767028e+00
0.22825       	4.766887e+00
0.2285        	4.766706e+00
0.22875       	4.766487e+00
0.229         	4.766231e+00
0.22925       	4.765938e+00
0.2295        	4.765616e+00
0.22975       	4.765286e+00
0.23          	4.764972e+00
0.23025       	4.764662e+00
0.2305        	4.764349e+00
0.23075       	4.764033e+00
0.231         	4.763714e+00
0.23125       	4.763397e+00
0.2315        	4.763080e+00
0.23175       	4.762757e+00
0.232         	4.762441e+00
0.23225       	4.762138e+00
0.2325        	4.761854e+00
0.23275       	4.761588e+00
0.233         	4.761352e+00
0.23325       	4.761153e+00
0.2335        	4.760996e+00
0.23375       	4.760877e+00
0.234         	4.760805e+00
0.23425       	4.760782e+00
0.2345        	4.760803e+00
0.23475       	4.760863e+00
0.235         	4.760962e+00
0.23525       	4.761098e+00
0.2355        	4.761270e+00
0.23575       	4.761478e+00
0.236         	4.761725e+00
0.23625       	4.762002e+00
0.2365        	4.762300e+00
0.23675       	4.762615e+00
0.237         	4.762932e+00
0.23725       	4.763235e+00
0.2375        	4.763539e+00
0.23775       	4.763834e+00
0.238         	4.764117e+00
0.23825       	4.764383e+00
0.2385        	4.764632e+00
0.23875       	4.764861e+00
0.239         	4.765073e+00
0.23925       	4.765266e+00
0.2395        	4.765434e+00
0.23975       	4.765576e+00
0.24          	4.765693e+00
0.24025       	4.765784e+00
0.2405        	4.765849e+00
0.24075       	4.765883e+00
0.241         	4.765880e+00
0.24125       	4.765841e+00
0.2415        	4.765766e+00
0.24175       	4.765653e+00
0.242         	4.765499e+00
0.24225       	4.765312e+00
0.2425        	4.765109e+00
0.24275       	4.764927e+00
0.243         	4.764757e+00
0.24325       	4.764587e+00
0.2435        	4.764407e+00
0.24375       	4.764215e+00
0.244         	4.764009e+00
0.24425       	4.763790e+00
0.2445        	4.763559e+00
0.24475       	4.763316e+00
0.245         	4.763061e+00
0.24525       	4.762797e+00
0.2455        	4.762528e+00
0.24575       	4.762257e+00
0.246         	4.761987e+00
0.24625       	4.761721e+00
0.2465        	4.761466e+00
0.24675       	4.761226e+00
0.247         	4.761007e+00
0.24725       	4.760815e+00
0.2475        	4.760652e+00
0.24775       	4.760523e+00
0.248         	4.760431e+00
0.24825       	4.760380e+00
0.2485        	4.760364e+00
0.24875       	4.760390e+00
0.249         	4.760461e+00
0.24925       	4.760582e+00
0.2495        	4.760753e+00
0.24975       	4.760972e+00
0.25          	4.761232e+00
0.25025       	4.761530e+00
0.2505        	4.761856e+00
0.25075       	4.762198e+00
0.251         	4.762544e+00
0.25125       	4.762888e+00
0.2515        	4.763237e+00
0.25175       	4.763590e+00
0.252         	4.763939e+00
0.25225       	4.764278e+00
0.2525        	4.764605e+00
0.25275       	4.764911e+00
0.253         	4.765189e+00
0.25325       	4.765436e+00
0.2535        	4.765652e+00
0.25375       	4.765838e+00
0.254         	4.765989e+00
0.25425       	4.766106e+00
0.2545        	4.766192e+00
0.25475       	4.766249e+00
0.255         	4.766276e+00
0.25525       	4.766270e+00
0.2555        	4.766224e+00
0.25575       	4.766145e+00
0.256         	4.766048e+00
0.25625       	4.765942e+00
0.2565        	4.765818e+00
0.25675       	4.765672e+00
0.257         	4.765501e+00
0.25725       	4.765298e+00
0.2575        	4.765064e+00
0.25775       	4.764797e+00
0.258         	4.764503e+00
0.25825       	4.764184e+00
0.2585        	4.763840e+00
0.25875       	4.763473e+00
0.259         	4.763091e+00
0.25925       	4.762703e+00
0.2595        	4.762318e+00
0.25975       	4.761943e+00
0.26          	4.761589e+00
0.26025       	4.761256e+00
0.2605        	4.760955e+00
0.26075       	4.760695e+00
0.261         	4.760482e+00
0.26125       	4.760326e+00
0.2615        	4.760233e+00
0.26175       	4.760201e+00
0.262         	4.760229e+00
0.26225       	4.760315e+00
0.2625        	4.760464e+00
0.26275       	4.760676e+00
0.263         	4.760950e+00
0.26325       	4.761284e+00
0.2635        	4.761671e+00
0.26375       	4.762099e+00
0.264         	4.762561e+00
0.26425       	4.763038e+00
0.2645        	4.763514e+00
0.26475       	4.763975e+00
0.265         	4.764409e+00
0.26525       	4.764818e+00
0.2655        	4.765213e+00
0.26575       	4.765576e+00
0.266         	4.765904e+00
0.26625       	4.766199e+00
0.2665        	4.766458e+00