# Region type : patch obstacle
# Faces       : 320
# Area        : 3.155522e-03
# Scale factor: 1.000000e+00
# Time        	areaAverage(p)
0.00025       	1.773432e+00
0.0005        	2.685372e+00
0.00075       	3.632044e+00
0.001         	4.508287e+00
0.00125       	5.242998e+00
0.0015        	5.783183e+00
0.00175       	6.094344e+00
0.002         	6.154791e+00
0.00225       	6.020785e+00
0.0025        	5.797432e+00
0.00275       	5.536297e+00
0.003         	5.269606e+00
0.00325       	5.022429e+00
0.0035        	4.811324e+00
0.00375       	4.647056e+00
0.004         	4.544379e+00
0.00425       	4.502293e+00
0.0045        	4.498621e+00
0.00475       	4.513164e+00
0.005         	4.536039e+00
0.00525       	4.560869e+00
0.0055        	4.583857e+00
0.00575       	4.603644e+00
0.006         	4.620415e+00
0.00625       	4.634401e+00
0.0065        	4.645154e+00
0.00675       	4.652816e+00
0.007         	4.658548e+00
0.00725       	4.663190e+00
0.0075        	4.667284e+00
0.00775       	4.671126e+00
0.008         	4.674851e+00
0.00825       	4.678550e+00
0.0085        	4.681998e+00
0.00875       	4.684494e+00
0.009         	4.685929e+00
0.00925       	4.686038e+00
0.0095        	4.685019e+00
0.00975       	4.683431e+00
0.01          	4.681843e+00
0.01025       	4.680772e+00
0.0105        	4.680346e+00
0.01075       	4.680671e+00
0.011         	4.681608e+00
0.01125       	4.683103e+00
0.0115        	4.684802e+00
0.01175       	4.686184e+00
0.012         	4.687147e+00
0.01225       	4.687782e+00
0.0125        	4.688423e+00
0.01275       	4.689047e+00
0.013         	4.689339e+00
0.01325       	4.689338e+00
0.0135        	4.689300e+00
0.01375       	4.689745e+00
0.014         	4.690615e+00
0.01425       	4.691495e+00
0.0145        	4.692114e+00
0.01475       	4.692473e+00
0.015         	4.692907e+00
0.01525       	4.693449e+00
0.0155        	4.693840e+00
0.01575       	4.693813e+00
0.016         	4.693460e+00
0.01625       	4.693190e+00
0.0165        	4.693309e+00
0.01675       	4.693574e+00
0.017         	4.693653e+00
0.01725       	4.693560e+00
0.0175        	4.693621e+00
0.01775       	4.694031e+00
0.018         	4.694484e+00
0.01825       	4.694598e+00
0.0185        	4.694246e+00
0.01875       	4.693812e+00
0.019         	4.693687e+00
0.01925       	4.693714e+00
0.0195        	4.693608e+00
0.01975       	4.693239e+00
0.02          	4.692904e+00
0.02025       	4.692920e+00
0.0205        	4.693221e+00
0.02075       	4.693448e+00
0.021         	4.693324e+00
0.02125       	4.693062e+00
0.0215        	4.693000e+00
0.02175       	4.693165e+00
0.022         	4.693196e+00
0.02225       	4.692869e+00
0.0225        	4.692297e+00
0.02275       	4.691820e+00
0.023         	4.691645e+00
0.02325       	4.691613e+00
0.0235        	4.691438e+00
0.02375       	4.691120e+00
0.024         	4.690856e+00
0.02425       	4.690885e+00
0.0245        	4.691139e+00
0.02475       	4.691238e+00
0.025         	4.691085e+00
0.02525       	4.690778e+00
0.0255        	4.690536e+00
0.02575       	4.690480e+00
0.026         	4.690406e+00
0.02625       	4.690072e+00
0.0265        	4.689646e+00
0.02675       	4.689360e+00
0.027         	4.689311e+00
0.02725       	4.689374e+00
0.0275        	4.689319e+00
0.02775       	4.689111e+00
0.028         	4.688936e+00
0.02825       	4.688902e+00
0.0285        	4.689008e+00
0.02875       	4.689030e+00
0.029         	4.688826e+00
0.02925       	4.688513e+00
0.0295        	4.688349e+00
0.02975       	4.688342e+00
0.03          	4.688317e+00
0.03025       	4.688144e+00
0.0305        	4.687900e+00
0.03075       	4.687777e+00
0.031         	4.687813e+00
0.03125       	4.687872e+00
0.0315        	4.687809e+00
0.03175       	4.687624e+00
0.032         	4.687479e+00
0.03225       	4.687474e+00
0.0325        	4.687481e+00
0.03275       	4.687406e+00
0.033         	4.687183e+00
0.03325       	4.686986e+00
0.0335        	4.686922e+00
0.03375       	4.686857e+00
0.034         	4.686764e+00
0.03425       	4.686545e+00
0.0345        	4.686401e+00
0.03475       	4.686386e+00
0.035         	4.686380e+00
0.03525       	4.686391e+00
0.0355        	4.686305e+00
0.03575       	4.686150e+00
0.036         	4.686061e+00
0.03625       	4.686024e+00
0.0365        	4.685967e+00
0.03675       	4.685871e+00
0.037         	4.685742e+00
0.03725       	4.685681e+00
0.0375        	4.685621e+00
0.03775       	4.685486e+00
0.038         	4.685315e+00
0.03825       	4.685150e+00
0.0385        	4.685115e+00
0.03875       	4.685109e+00
0.039         	4.685030e+00
0.03925       	4.684946e+00
0.0395        	4.684868e+00
0.03975       	4.684895e+00
0.04          	4.684935e+00
0.04025       	4.684840e+00
0.0405        	4.684673e+00
0.04075       	4.684535e+00
0.041         	4.684508e+00
0.04125       	4.684531e+00
0.0415        	4.684403e+00
0.04175       	4.684195e+00
0.042         	4.684005e+00
0.04225       	4.683975e+00
0.0425        	4.684048e+00
0.04275       	4.683948e+00
0.043         	4.683694e+00
0.04325       	4.683427e+00
0.0435        	4.683382e+00
0.04375       	4.683481e+00
0.044         	4.683476e+00
0.04425       	4.683265e+00
0.0445        	4.682992e+00
0.04475       	4.682945e+00
0.045         	4.683083e+00
0.04525       	4.683136e+00
0.0455        	4.682928e+00
0.04575       	4.682586e+00
0.046         	4.682405e+00
0.04625       	4.682497e+00
0.0465        	4.682547e+00
0.04675       	4.682354e+00
0.047         	4.681991e+00
0.04725       	4.681792e+00
0.0475        	4.681922e+00
0.04775       	4.682050e+00
0.048         	4.681925e+00
0.04825       	4.681600e+00
0.0485        	4.681434e+00
0.04875       	4.681569e+00
0.049         	4.681703e+00
0.04925       	4.681557e+00
0.0495        	4.681173e+00
0.04975       	4.680944e+00
0.05          	4.680994e+00
0.05025       	4.681171e+00
0.0505        	4.681152e+00
0.05075       	4.680943e+00
0.051         	4.680732e+00
0.05125       	4.680649e+00
0.0515        	4.680764e+00
0.05175       	4.680848e+00
0.052         	4.680779e+00
0.05225       	4.680746e+00
0.0525        	4.680917e+00
0.05275       	4.681350e+00
0.053         	4.681887e+00
0.05325       	4.682290e+00
0.0535        	4.682455e+00
0.05375       	4.682613e+00
0.054         	4.683020e+00
0.05425       	4.683539e+00
0.0545        	4.683991e+00
0.05475       	4.684267e+00
0.055         	4.684573e+00
0.05525       	4.685113e+00
0.0555        	4.685777e+00
0.05575       	4.686386e+00
0.056         	4.686775e+00
0.05625       	4.687108e+00
0.0565        	4.687628e+00
0.05675       	4.688339e+00
0.057         	4.689135e+00
0.05725       	4.689808e+00
0.0575        	4.690321e+00
0.05775       	4.690903e+00
0.058         	4.691665e+00
0.05825       	4.692481e+00
0.0585        	4.693172e+00
0.05875       	4.693649e+00
0.059         	4.694130e+00
0.05925       	4.694811e+00
0.0595        	4.695592e+00
0.05975       	4.696327e+00
0.06          	4.696912e+00
0.06025       	4.697502e+00
0.0605        	4.698291e+00
0.06075       	4.699159e+00
0.061         	4.699951e+00
0.06125       	4.700561e+00
0.0615        	4.701108e+00
0.06175       	4.701848e+00
0.062         	4.702706e+00
0.06225       	4.703553e+00
0.0625        	4.704215e+00
0.06275       	4.704860e+00
0.063         	4.705616e+00
0.06325       	4.706440e+00
0.0635        	4.707291e+00
0.06375       	4.708086e+00
0.064         	4.708792e+00
0.06425       	4.709527e+00
0.0645        	4.710334e+00
0.06475       	4.711147e+00
0.065         	4.711922e+00
0.06525       	4.712593e+00
0.0655        	4.713257e+00
0.06575       	4.713977e+00
0.066         	4.714689e+00
0.06625       	4.715448e+00
0.0665        	4.716204e+00
0.06675       	4.716973e+00
0.067         	4.717781e+00
0.06725       	4.718569e+00
0.0675        	4.719331e+00
0.06775       	4.719998e+00
0.068         	4.720757e+00
0.06825       	4.721657e+00
0.0685        	4.722463e+00
0.06875       	4.723183e+00
0.069         	4.723823e+00
0.06925       	4.724520e+00
0.0695        	4.725363e+00
0.06975       	4.726169e+00
0.07          	4.726909e+00
0.07025       	4.727515e+00
0.0705        	4.728139e+00
0.07075       	4.728922e+00
0.071         	4.729696e+00
0.07125       	4.730406e+00
0.0715        	4.731094e+00
0.07175       	4.731899e+00
0.072         	4.732757e+00
0.07225       	4.733505e+00
0.0725        	4.734130e+00
0.07275       	4.734777e+00
0.073         	4.735589e+00
0.07325       	4.736522e+00
0.0735        	4.737348e+00
0.07375       	4.737935e+00
0.074         	4.738461e+00
0.07425       	4.739109e+00
0.0745        	4.739972e+00
0.07475       	4.740814e+00
0.075         	4.741444e+00
0.07525       	4.741978e+00
0.0755        	4.742582e+00
0.07575       	4.743419e+00
0.076         	4.744243e+00
0.07625       	4.744870e+00
0.0765        	4.745347e+00
0.07675       	4.745916e+00
0.077         	4.746751e+00
0.07725       	4.747641e+00
0.0775        	4.748285e+00
0.07775       	4.748711e+00
0.078         	4.749230e+00
0.07825       	4.750051e+00
0.0785        	4.750956e+00
0.07875       	4.751607e+00
0.079         	4.751991e+00
0.07925       	4.752469e+00
0.0795        	4.753284e+00
0.07975       	4.754231e+00
0.08          	4.754904e+00
0.08025       	4.755235e+00
0.0805        	4.755604e+00
0.08075       	4.756259e+00
0.081         	4.757131e+00
0.08125       	4.757887e+00
0.0815        	4.758332e+00
0.08175       	4.758654e+00
0.082         	4.759101e+00
0.08225       	4.759805e+00
0.0825        	4.760574e+00
0.08275       	4.761155e+00
0.083         	4.761506e+00
0.08325       	4.761881e+00
0.0835        	4.762463e+00
0.08375       	4.763211e+00
0.084         	4.763855e+00
0.08425       	4.764204e+00
0.0845        	4.764471e+00
0.08475       	4.764983e+00
0.085         	4.765657e+00
0.08525       	4.766286e+00
0.0855        	4.766667e+00
0.08575       	4.766936e+00
0.086         	4.767345e+00
0.08625       	4.767945e+00
0.0865        	4.768528e+00
0.08675       	4.768950e+00
0.087         	4.769265e+00
0.08725       	4.769658e+00
0.0875        	4.770216e+00
0.08775       	4.770839e+00
0.088         	4.771300e+00
0.08825       	4.771506e+00
0.0885        	4.771736e+00
0.08875       	4.772203e+00
0.089         	4.772779e+00
0.08925       	4.773246e+00
0.0895        	4.773423e+00
0.08975       	4.773507e+00
0.09          	4.773864e+00
0.09025       	4.774361e+00
0.0905        	4.774782e+00
0.09075       	4.774960e+00
0.091         	4.775045e+00
0.09125       	4.775341e+00
0.0915        	4.775846e+00
0.09175       	4.776306e+00
0.092         	4.776537e+00
0.09225       	4.776574e+00
0.0925        	4.776812e+00
0.09275       	4.777233e+00
0.093         	4.777590e+00
0.09325       	4.777702e+00
0.0935        	4.777601e+00
0.09375       	4.777584e+00
0.094         	4.777746e+00
0.09425       	4.777978e+00
0.0945        	4.778100e+00
0.09475       	4.777957e+00
0.095         	4.777809e+00
0.09525       	4.777872e+00
0.0955        	4.778086e+00
0.09575       	4.778250e+00
0.096         	4.778171e+00
0.09625       	4.777945e+00
0.0965        	4.777892e+00
0.09675       	4.778026e+00
0.097         	4.778154e+00
0.09725       	4.778115e+00
0.0975        	4.777926e+00
0.09775       	4.777854e+00
0.098         	4.777976e+00
0.09825       	4.778133e+00
0.0985        	4.778156e+00
0.09875       	4.778017e+00
0.099         	4.777964e+00
0.09925       	4.778032e+00
0.0995        	4.778121e+00
0.09975       	4.778074e+00
0.1           	4.777970e+00
0.10025       	4.777909e+00
0.1005        	4.777903e+00
0.10075       	4.777929e+00
0.101         	4.777954e+00
0.10125       	4.777885e+00
0.1015        	4.777825e+00
0.10175       	4.777806e+00
0.102         	4.777847e+00
0.10225       	4.777921e+00
0.1025        	4.777942e+00
0.10275       	4.777904e+00
0.103         	4.777874e+00
0.10325       	4.777864e+00
0.1035        	4.777879e+00
0.10375       	4.777869e+00
0.104         	4.777854e+00
0.10425       	4.777857e+00
0.1045        	4.777854e+00
0.10475       	4.777881e+00
0.105         	4.777885e+00
0.10525       	4.777941e+00
0.1055        	4.777996e+00
0.10575       	4.777976e+00
0.106         	4.777958e+00
0.10625       	4.777906e+00
0.1065        	4.777931e+00
0.10675       	4.778019e+00
0.107         	4.778025e+00
0.10725       	4.777994e+00
0.1075        	4.777958e+00
0.10775       	4.777985e+00
0.108         	4.778062e+00
0.10825       	4.778095e+00
0.1085        	4.778030e+00
0.10875       	4.777960e+00
0.109         	4.777956e+00
0.10925       	4.778043e+00
0.1095        	4.778102e+00
0.10975       	4.778011e+00
0.11          	4.777908e+00
0.11025       	4.777898e+00
0.1105        	4.778086e+00
0.11075       	4.778196e+00
0.111         	4.778118e+00
0.11125       	4.778006e+00
0.1115        	4.777943e+00
0.11175       	4.778083e+00
0.112         	4.778186e+00
0.11225       	4.778121e+00
0.1125        	4.777995e+00
0.11275       	4.777896e+00
0.113         	4.777997e+00
0.11325       	4.778134e+00
0.1135        	4.778079e+00
0.11375       	4.777889e+00
0.114         	4.777798e+00
0.11425       	4.777908e+00
0.1145        	4.778120e+00
0.11475       	4.778114e+00
0.115         	4.777887e+00
0.11525       	4.777757e+00
0.1155        	4.777893e+00
0.11575       	4.778158e+00
0.116         	4.778168e+00
0.11625       	4.777886e+00
0.1165        	4.777666e+00
0.11675       	4.777803e+00
0.117         	4.778141e+00
0.11725       	4.778225e+00
0.1175        	4.777940e+00
0.11775       	4.777657e+00
0.118         	4.777753e+00
0.11825       	4.778080e+00
0.1185        	4.778242e+00
0.11875       	4.778040e+00
0.119         	4.777732e+00
0.11925       	4.777650e+00
0.1195        	4.777851e+00
0.11975       	4.778107e+00
0.12          	4.778076e+00
0.12025       	4.777770e+00
0.1205        	4.777581e+00
0.12075       	4.777647e+00
0.121         	4.777873e+00
0.12125       	4.777954e+00
0.1215        	4.777770e+00
0.12175       	4.777552e+00
0.122         	4.777531e+00
0.12225       	4.777730e+00
0.1225        	4.777918e+00
0.12275       	4.777856e+00
0.123         	4.777624e+00
0.12325       	4.777536e+00
0.1235        	4.777705e+00
0.12375       	4.777917e+00
0.124         	4.777924e+00
0.12425       	4.777739e+00
0.1245        	4.777673e+00
0.12475       	4.777825e+00
0.125         	4.778031e+00
0.12525       	4.778050e+00
0.1255        	4.777890e+00
0.12575       	4.777767e+00
0.126         	4.777798e+00
0.12625       	4.777957e+00
0.1265        	4.778066e+00
0.12675       	4.777935e+00
0.127         	4.777743e+00
0.12725       	4.777742e+00
0.1275        	4.777946e+00
0.12775       	4.778137e+00
0.128         	4.778091e+00
0.12825       	4.777864e+00
0.1285        	4.777816e+00
0.12875       	4.777994e+00
0.129         	4.778181e+00
0.12925       	4.778166e+00
0.1295        	4.777936e+00
0.12975       	4.777826e+00
0.13          	4.777970e+00
0.13025       	4.778151e+00
0.1305        	4.778164e+00
0.13075       	4.777930e+00
0.131         	4.777798e+00
0.13125       	4.777901e+00
0.1315        	4.778080e+00
0.13175       	4.778148e+00
0.132         	4.777952e+00
0.13225       	4.777758e+00
0.1325        	4.777793e+00
0.13275       	4.777991e+00
0.133         	4.778185e+00
0.13325       	4.778118e+00
0.1335        	4.777858e+00
0.13375       	4.777794e+00
0.134         	4.777982e+00
0.13425       	4.778154e+00
0.1345        	4.778146e+00
0.13475       	4.777929e+00
0.135         	4.777809e+00
0.13525       	4.777929e+00
0.1355        	4.778078e+00
0.13575       	4.778100e+00
0.136         	4.777927e+00
0.13625       	4.777822e+00
0.1365        	4.777944e+00
0.13675       	4.778104e+00
0.137         	4.778138e+00
0.13725       	4.777953e+00
0.1375        	4.777832e+00
0.13775       	4.777876e+00
0.138         	4.777964e+00
0.13825       	4.778020e+00
0.1385        	4.777919e+00
0.13875       	4.777779e+00
0.139         	4.777762e+00
0.13925       	4.777872e+00
0.1395        	4.777995e+00
0.13975       	4.777982e+00
0.14          	4.777830e+00
0.14025       	4.777766e+00
0.1405        	4.777831e+00
0.14075       	4.777908e+00
0.141         	4.777902e+00
0.14125       	4.777796e+00
0.1415        	4.777732e+00
0.14175       	4.777785e+00
0.142         	4.777873e+00
0.14225       	4.777888e+00
0.1425        	4.777822e+00
0.14275       	4.777818e+00
0.143         	4.777898e+00
0.14325       	4.777969e+00
0.1435        	4.777925e+00
0.14375       	4.777832e+00
0.144         	4.777831e+00
0.14425       	4.777869e+00
0.1445        	4.777884e+00
0.14475       	4.777875e+00
0.145         	4.777843e+00
0.14525       	4.777867e+00
0.1455        	4.777883e+00
0.14575       	4.777908e+00
0.146         	4.777955e+00
0.14625       	4.777993e+00
0.1465        	4.778023e+00
0.14675       	4.778048e+00
0.147         	4.778031e+00
0.14725       	4.778005e+00
0.1475        	4.777979e+00
0.14775       	4.778016e+00
0.148         	4.778057e+00
0.14825       	4.778042e+00
0.1485        	4.778030e+00
0.14875       	4.777990e+00
0.149         	4.778057e+00
0.14925       	4.778138e+00
0.1495        	4.778111e+00
0.14975       	4.778042e+00
0.15          	4.777938e+00
0.15025       	4.777964e+00
0.1505        	4.778047e+00
0.15075       	4.778017e+00
0.151         	4.777917e+00
0.15125       	4.777825e+00
0.1515        	4.777862e+00
0.15175       	4.777994e+00
0.152         	4.778034e+00
0.15225       	4.777924e+00
0.1525        	4.777840e+00
0.15275       	4.777843e+00
0.153         	4.777987e+00
0.15325       	4.778045e+00
0.1535        	4.777937e+00
0.15375       	4.777850e+00
0.154         	4.777845e+00
0.15425       	4.778015e+00
0.1545        	4.778098e+00
0.15475       	4.777989e+00
0.155         	4.777865e+00
0.15525       	4.777859e+00
0.1555        	4.778044e+00
0.15575       	4.778161e+00
0.156         	4.778042e+00
0.15625       	4.777835e+00
0.1565        	4.777782e+00
0.15675       	4.777956e+00
0.157         	4.778140e+00
0.15725       	4.778032e+00
0.1575        	4.777755e+00
0.15775       	4.777671e+00
0.158         	4.777855e+00
0.15825       	4.778112e+00
0.1585        	4.778044e+00
0.15875       	4.777744e+00
0.159         	4.777587e+00
0.15925       	4.777745e+00
0.1595        	4.778066e+00
0.15975       	4.778054e+00
0.16          	4.777744e+00
0.16025       	4.777528e+00
0.1605        	4.777614e+00
0.16075       	4.777934e+00
0.161         	4.778088e+00
0.16125       	4.777908e+00
0.1615        	4.777654e+00
0.16175       	4.777594e+00
0.162         	4.777863e+00
0.16225       	4.778151e+00
0.1625        	4.778104e+00
0.16275       	4.777802e+00
0.163         	4.777684e+00
0.16325       	4.777832e+00
0.1635        	4.778077e+00
0.16375       	4.778111e+00
0.164         	4.777874e+00
0.16425       	4.777702e+00
0.1645        	4.777770e+00
0.16475       	4.777983e+00
0.165         	4.778077e+00
0.16525       	4.777948e+00
0.1655        	4.777766e+00
0.16575       	4.777731e+00
0.166         	4.777885e+00
0.16625       	4.778038e+00
0.1665        	4.778001e+00
0.16675       	4.777833e+00
0.167         	4.777747e+00
0.16725       	4.777874e+00
0.1675        	4.778091e+00
0.16775       	4.778100e+00
0.168         	4.777910e+00
0.16825       	4.777789e+00
0.1685        	4.777921e+00
0.16875       	4.778154e+00
0.169         	4.778221e+00
0.16925       	4.778002e+00
0.1695        	4.777840e+00
0.16975       	4.777906e+00
0.17          	4.778095e+00
0.17025       	4.778169e+00
0.1705        	4.777975e+00
0.17075       	4.777771e+00
0.171         	4.777764e+00
0.17125       	4.777928e+00
0.1715        	4.778113e+00
0.17175       	4.778085e+00
0.172         	4.777868e+00
0.17225       	4.777752e+00
0.1725        	4.777893e+00
0.17275       	4.778097e+00
0.173         	4.778131e+00
0.17325       	4.777920e+00
0.1735        	4.777760e+00
0.17375       	4.777873e+00
0.174         	4.778074e+00
0.17425       	4.778150e+00
0.1745        	4.777946e+00
0.17475       	4.777758e+00
0.175         	4.777855e+00
0.17525       	4.778054e+00
0.1755        	4.778149e+00
0.17575       	4.777937e+00
0.176         	4.777729e+00
0.17625       	4.777757e+00
0.1765        	4.777939e+00
0.17675       	4.778086e+00
0.177         	4.777992e+00
0.17725       	4.777775e+00
0.1775        	4.777742e+00
0.17775       	4.777922e+00
0.178         	4.778138e+00
0.17825       	4.778147e+00
0.1785        	4.777902e+00
0.17875       	4.777744e+00
0.179         	4.777833e+00
0.17925       	4.777970e+00
0.1795        	4.778006e+00
0.17975       	4.777812e+00
0.18          	4.777647e+00
0.18025       	4.777727e+00
0.1805        	4.777873e+00
0.18075       	4.777954e+00
0.181         	4.777819e+00
0.18125       	4.777694e+00
0.1815        	4.777772e+00
0.18175       	4.777905e+00
0.182         	4.777961e+00
0.18225       	4.777873e+00
0.1825        	4.777771e+00
0.18275       	4.777795e+00
0.183         	4.777886e+00
0.18325       	4.777994e+00
0.1835        	4.777944e+00
0.18375       	4.777818e+00
0.184         	4.777788e+00
0.18425       	4.777897e+00
0.1845        	4.778030e+00
0.18475       	4.778073e+00
0.185         	4.777971e+00
0.18525       	4.777919e+00
0.1855        	4.777985e+00
0.18575       	4.778062e+00
0.186         	4.778070e+00
0.18625       	4.777989e+00
0.1865        	4.777941e+00
0.18675       	4.777993e+00
0.187         	4.778071e+00
0.18725       	4.778076e+00
0.1875        	4.778018e+00
0.18775       	4.777988e+00
0.188         	4.778041e+00
0.18825       	4.778095e+00
0.1885        	4.778058e+00
0.18875       	4.777922e+00
0.189         	4.777898e+00
0.18925       	4.777930e+00
0.1895        	4.777949e+00
0.18975       	4.777949e+00
0.19          	4.777900e+00
0.19025       	4.777898e+00
0.1905        	4.777926e+00
0.19075       	4.777939e+00
0.191         	4.777988e+00
0.19125       	4.778006e+00
0.1915        	4.778023e+00
0.19175       	4.778019e+00
0.192         	4.777960e+00
0.19225       	4.777915e+00
0.1925        	4.777876e+00
0.19275       	4.777926e+00
0.193         	4.777996e+00
0.19325       	4.777992e+00
0.1935        	4.777956e+00
0.19375       	4.777900e+00
0.194         	4.777976e+00
0.19425       	4.778099e+00
0.1945        	4.778100e+00
0.19475       	4.777998e+00
0.195         	4.777875e+00
0.19525       	4.777878e+00
0.1955        	4.777996e+00
0.19575       	4.778026e+00
0.196         	4.777893e+00
0.19625       	4.777787e+00
0.1965        	4.777784e+00
0.19675       	4.777928e+00
0.197         	4.777993e+00
0.19725       	4.777884e+00
0.1975        	4.777788e+00
0.19775       	4.777762e+00
0.198         	4.777914e+00
0.19825       	4.777979e+00
0.1985        	4.777860e+00
0.19875       	4.777709e+00
0.199         	4.777671e+00
0.19925       	4.777852e+00
0.1995        	4.777989e+00
0.19975       	4.777900e+00
0.2           	4.777726e+00
0.20025       	4.777682e+00
0.2005        	4.777861e+00
0.20075       	4.778079e+00
0.201         	4.778017e+00
0.20125       	4.777767e+00
0.2015        	4.777672e+00
0.20175       	4.777838e+00
0.202         	4.778096e+00
0.20225       	4.778064e+00
0.2025        	4.777798e+00
0.20275       	4.777650e+00
0.203         	4.777799e+00
0.20325       	4.778123e+00
0.2035        	4.778138e+00
0.20375       	4.777861e+00
0.204         	4.777669e+00
0.20425       	4.777770e+00
0.2045        	4.778082e+00
0.20475       	4.778206e+00
0.205         	4.778011e+00
0.20525       	4.777769e+00
0.2055        	4.777716e+00
0.20575       	4.777986e+00
0.206         	4.778258e+00
0.20625       	4.778199e+00
0.2065        	4.777914e+00
0.20675       	4.777823e+00
0.207         	4.778000e+00
0.20725       	4.778252e+00
0.2075        	4.778259e+00
0.20775       	4.777996e+00
0.208         	4.777807e+00
0.20825       	4.777872e+00
0.2085        	4.778078e+00
0.20875       	4.778140e+00
0.209         	4.777970e+00
0.20925       	4.777786e+00
0.2095        	4.777769e+00
0.20975       	4.777935e+00
0.21          	4.778065e+00
0.21025       	4.777994e+00
0.2105        	4.777809e+00
0.21075       	4.777720e+00
0.211         	4.777838e+00
0.21125       	4.778025e+00
0.2115        	4.777994e+00
0.21175       	4.777776e+00
0.212         	4.777637e+00
0.21225       	4.777763e+00
0.2125        	4.778014e+00
0.21275       	4.778095e+00
0.213         	4.777901e+00
0.21325       	4.777741e+00
0.2135        	4.777840e+00
0.21375       	4.778076e+00
0.214         	4.778187e+00
0.21425       	4.778003e+00
0.2145        	4.777795e+00
0.21475       	4.777779e+00
0.215         	4.777947e+00
0.21525       	4.778102e+00
0.2155        	4.778036e+00
0.21575       	4.777830e+00
0.216         	4.777721e+00
0.21625       	4.777848e+00
0.2165        	4.778057e+00
0.21675       	4.778089e+00
0.217         	4.777865e+00
0.21725       	4.777677e+00
0.2175        	4.777751e+00
0.21775       	4.777939e+00
0.218         	4.778017e+00
0.21825       	4.777820e+00
0.2185        	4.777612e+00
0.21875       	4.777685e+00
0.219         	4.777879e+00
0.21925       	4.778004e+00
0.2195        	4.777826e+00
0.21975       	4.777632e+00
0.22          	4.777675e+00
0.22025       	4.777868e+00
0.2205        	4.778018e+00
0.22075       	4.777931e+00
0.221         	4.777741e+00
0.22125       	4.777728e+00
0.2215        	4.777907e+00
0.22175       	4.778132e+00
0.222         	4.778172e+00
0.22225       	4.777962e+00
0.2225        	4.777817e+00
0.22275       	4.777918e+00
0.223         	4.778065e+00
0.22325       	4.778116e+00
0.2235        	4.777943e+00
0.22375       	4.777790e+00
0.224         	4.777862e+00
0.22425       	4.778009e+00
0.2245        	4.778086e+00
0.22475       	4.777947e+00
0.225         	4.777821e+00
0.22525       	4.777915e+00
0.2255        	4.778069e+00
0.22575       	4.778129e+00
0.226         	4.778005e+00
0.22625       	4.777891e+00
0.2265        	4.777939e+00
0.22675       	4.778048e+00
0.227         	4.778149e+00
0.22725       	4.778068e+00
0.2275        	4.777905e+00
0.22775       	4.777877e+00
0.228         	4.777998e+00
0.22825       	4.778144e+00
0.2285        	4.778164e+00
0.22875       	4.778012e+00
0.229         	4.777923e+00
0.22925       	4.777989e+00
0.2295        	4.778069e+00
0.22975       	4.778059e+00
0.23          	4.777934e+00
0.23025       	4.777835e+00
0.2305        	4.777875e+00
0.23075       	4.777972e+00
0.231         	4.777995e+00
0.23125       	4.777913e+00
0.2315        	4.777853e+00
0.23175       	4.777912e+00
0.232         	4.777989e+00
0.23225       	4.777987e+00
0.2325        	4.777887e+00
0.23275       	4.777863e+00
0.233         	4.777888e+00
0.23325       	4.777912e+00
0.2335        	4.777946e+00
0.23375       	4.777932e+00
0.234         	4.777922e+00
0.23425       	4.777915e+00
0.2345        	4.777908e+00
0.23475       	4.777956e+00
0.235         	4.777994e+00
0.23525       	4.778016e+00
0.2355        	4.778017e+00
0.23575       	4.777970e+00
0.236         	4.777916e+00
0.23625       	4.777866e+00
0.2365        	4.777893e+00
0.23675       	4.777928e+00
0.237         	4.777899e+00
0.23725       	4.777847e+00
0.2375        	4.777763e+00
0.23775       	4.777802e+00
0.238         	4.777907e+00
0.23825       	4.777906e+00
0.2385        	4.777824e+00
0.23875       	4.777725e+00
0.239         	4.777752e+00
0.23925       	4.777894e+00
0.2395        	4.777946e+00
0.23975       	4.777844e+00
0.24          	4.777746e+00
0.24025       	4.777738e+00
0.2405        	4.777892e+00
0.24075       	4.777986e+00
0.241         	4.777904e+00
0.24125       	4.777816e+00
0.2415        	4.777774e+00
0.24175       	4.777916e+00
0.242         	4.778025e+00
0.24225       	4.777964e+00
0.2425        	4.777854e+00
0.24275       	4.777795e+00
0.243         	4.777937e+00
0.24325       	4.778063e+00
0.2435        	4.778017e+00
0.24375       	4.777883e+00
0.244         	4.777834e+00
0.24425       	4.777977e+00
0.2445        	4.778149e+00
0.24475       	4.778104e+00
0.245         	4.777910e+00
0.24525       	4.777838e+00
0.2455        	4.777971e+00
0.24575       	4.778197e+00
0.246         	4.778166e+00
0.24625       	4.777917e+00
0.2465        	4.777790e+00
0.24675       	4.777935e+00
0.247         	4.778210e+00
0.24725       	4.778204e+00
0.2475        	4.777929e+00
0.24775       	4.777750e+00
0.248         	4.777855e+00
0.24825       	4.778161e+00
0.2485        	4.778221e+00
0.24875       	4.777943e+00
0.249         	4.777688e+00
0.24925       	4.777720e+00
0.2495        	4.778016e+00
0.24975       	4.778219e+00
0.25          	4.778084e+00
0.25025       	4.777801e+00
0.2505        	4.777679e+00
0.25075       	4.777897e+00
0.251         	4.778188e+00
0.25125       	4.778193e+00
0.2515        	4.777888e+00
0.25175       	4.777718e+00
0.252         	4.777837e+00
0.25225       	4.778105e+00
0.2525        	4.778181e+00
0.25275       	4.777969e+00
0.253         	4.777764e+00
0.25325       	4.777777e+00
0.2535        	4.777998e+00
0.25375       	4.778127e+00
0.254         	4.778007e+00
0.25425       	4.777783e+00
0.2545        	4.777696e+00
0.25475       	4.777845e+00
0.255         	4.778027e+00
0.25525       	4.777997e+00
0.2555        	4.777778e+00
0.25575       	4.777611e+00
0.256         	4.777673e+00
0.25625       	4.777909e+00
0.2565        	4.777957e+00
0.25675       	4.777757e+00
0.257         	4.777565e+00
0.25725       	4.777632e+00
0.2575        	4.777870e+00
0.25775       	4.778014e+00
0.258         	4.777856e+00
0.25825       	4.777665e+00
0.2585        	4.777679e+00
0.25875       	4.777877e+00
0.259         	4.778038e+00
0.25925       	4.777940e+00
0.2595        	4.777743e+00
0.25975       	4.777674e+00
0.26          	4.777797e+00
0.26025       	4.778011e+00
0.2605        	4.778083e+00
0.26075       	4.777908e+00
0.261         	4.777746e+00
0.26125       	4.777827e+00
0.2615        	4.778028e+00
0.26175       	4.778124e+00
0.262         	4.777965e+00
0.26225       	4.777768e+00
0.2625        	4.777822e+00
0.26275       	4.778009e+00
0.263         	4.778130e+00
0.26325       	4.777982e+00
0.2635        	4.777787e+00
0.26375       	4.777843e+00
0.264         	4.778028e+00
0.26425       	4.778152e+00
0.2645        	4.778013e+00
0.26475       	4.777819e+00
0.265         	4.777823e+00
0.26525       	4.778000e+00
0.2655        	4.778177e+00
0.26575       	4.778138e+00
0.266         	4.777919e+00
0.26625       	4.777849e+00
0.2665        	4.778020e+00