# Field minima and maxima
# Time        	field         	min           	location(min) 	processor     	max           	location(max) 	processor     
0.00025       	rho           	1.400005e+00	(3.043235e-01 8.220751e-02 4.192258e-20)	14	2.503440e+00	(3.043235e-01 8.176465e-02 8.849486e-20)	14
0.00025       	p             	9.999998e-01	(3.043235e-01 8.220751e-02 4.192258e-20)	14	2.249748e+00	(3.043235e-01 8.176465e-02 8.849486e-20)	14
0.0005        	rho           	1.400005e+00	(1.119186e-01 3.113610e-02 -1.166473e-19)	8	3.481857e+00	(3.043235e-01 8.176465e-02 8.849486e-20)	14
0.0005        	p             	9.999999e-01	(1.119186e-01 3.113610e-02 -1.166473e-19)	8	3.697276e+00	(3.043235e-01 8.176465e-02 8.849486e-20)	14
0.00075       	rho           	1.399913e+00	(2.381117e-03 2.060787e-03 3.145493e-20)	0	4.214934e+00	(3.043235e-01 8.176465e-02 8.849486e-20)	14
0.00075       	p             	9.999265e-01	(2.381117e-03 2.060787e-03 3.145493e-20)	0	5.029182e+00	(3.043235e-01 8.176465e-02 8.849486e-20)	14
0.001         	rho           	1.399895e+00	(1.428617e-03 1.807958e-03 1.941034e-20)	0	4.694151e+00	(3.043235e-01 8.176465e-02 8.849486e-20)	14
0.001         	p             	9.998785e-01	(1.428617e-03 1.807958e-03 1.941034e-20)	0	6.042060e+00	(3.043235e-01 8.176465e-02 8.849486e-20)	14
0.00125       	rho           	1.399579e+00	(2.381117e-03 2.060787e-03 3.145493e-20)	0	4.940809e+00	(3.033710e-01 8.151023e-02 -9.382528e-21)	14
0.00125       	p             	9.995812e-01	(2.381117e-03 2.060787e-03 3.145493e-20)	0	6.594081e+00	(3.033710e-01 8.151023e-02 -9.382528e-21)	14
0.0015        	rho           	1.399582e+00	(2.381117e-03 2.060787e-03 3.145493e-20)	0	4.965630e+00	(2.795585e-01 7.514964e-02 1.759038e-19)	14
0.0015        	p             	9.995866e-01	(2.381117e-03 2.060787e-03 3.145493e-20)	0	6.662265e+00	(2.814635e-01 7.565848e-02 -2.553780e-20)	14
0.00175       	rho           	1.399596e+00	(2.381117e-03 2.060787e-03 3.145493e-20)	0	4.955737e+00	(2.309810e-01 6.217402e-02 -3.934880e-21)	15
0.00175       	p             	9.996010e-01	(2.381117e-03 2.060787e-03 3.145493e-20)	0	6.647895e+00	(2.328860e-01 6.268287e-02 -4.435362e-20)	15
0.002         	rho           	1.399598e+00	(2.381117e-03 2.060787e-03 3.145493e-20)	0	4.948356e+00	(1.814511e-01 4.894398e-02 -1.635179e-20)	9
0.002         	p             	9.996040e-01	(2.381117e-03 2.060787e-03 3.145493e-20)	0	6.637214e+00	(1.833561e-01 4.945282e-02 2.351665e-19)	9
0.00225       	rho           	1.399598e+00	(2.381117e-03 2.060787e-03 3.145493e-20)	0	4.942651e+00	(1.328736e-01 3.596836e-02 -4.733096e-21)	8
0.00225       	p             	9.996039e-01	(2.381117e-03 2.060787e-03 3.145493e-20)	0	6.628890e+00	(1.347786e-01 3.647720e-02 -1.123087e-20)	8
0.0025        	rho           	1.399598e+00	(2.381117e-03 2.060787e-03 3.145493e-20)	0	4.938080e+00	(8.334359e-02 2.273831e-02 1.816009e-20)	8
0.0025        	p             	9.996042e-01	(2.381117e-03 2.060787e-03 3.145493e-20)	0	6.622253e+00	(8.620109e-02 2.350158e-02 -3.531880e-20)	8
0.00275       	rho           	1.399599e+00	(2.381117e-03 2.060787e-03 3.145493e-20)	0	4.934348e+00	(3.381361e-02 9.508266e-03 1.781941e-19)	1
0.00275       	p             	9.996050e-01	(2.381117e-03 2.060787e-03 3.145493e-20)	0	6.616865e+00	(3.762361e-02 1.052596e-02 -9.290327e-20)	1
0.003         	rho           	1.399600e+00	(2.381117e-03 2.060787e-03 3.145493e-20)	0	4.916145e+00	(1.952611e-02 5.691906e-03 -5.491806e-20)	1
0.003         	p             	9.996052e-01	(2.381117e-03 2.060787e-03 3.145493e-20)	0	6.586563e+00	(1.952611e-02 5.691906e-03 -5.491806e-20)	1
0.00325       	rho           	1.399599e+00	(2.381117e-03 2.060787e-03 3.145493e-20)	0	4.943408e+00	(1.095361e-02 3.402090e-03 1.576277e-19)	0
0.00325       	p             	9.996046e-01	(2.381117e-03 2.060787e-03 3.145493e-20)	0	6.588998e+00	(1.095361e-02 3.402090e-03 1.576277e-19)	0
0.0035        	rho           	1.399598e+00	(2.381117e-03 2.060787e-03 3.145493e-20)	0	5.005393e+00	(1.095361e-02 3.402090e-03 1.576277e-19)	0
0.0035        	p             	9.996044e-01	(2.381117e-03 2.060787e-03 3.145493e-20)	0	6.726806e+00	(1.095361e-02 3.402090e-03 1.576277e-19)	0
0.00375       	rho           	1.399599e+00	(2.381117e-03 2.060787e-03 3.145493e-20)	0	5.037510e+00	(1.190611e-02 3.656514e-03 -1.474061e-20)	0
0.00375       	p             	9.996049e-01	(2.381117e-03 2.060787e-03 3.145493e-20)	0	6.803949e+00	(1.190611e-02 3.656514e-03 -1.474061e-20)	0
0.004         	rho           	1.399599e+00	(2.381117e-03 2.060787e-03 3.145493e-20)	0	5.059843e+00	(1.190611e-02 3.656514e-03 -1.474061e-20)	0
0.004         	p             	9.996052e-01	(2.381117e-03 2.060787e-03 3.145493e-20)	0	6.843925e+00	(1.190611e-02 3.656514e-03 -1.474061e-20)	0
0.00425       	rho           	1.399598e+00	(2.381117e-03 2.060787e-03 3.145493e-20)	0	5.051107e+00	(1.285861e-02 3.910938e-03 -3.280694e-21)	0
0.00425       	p             	9.996045e-01	(2.381117e-03 2.060787e-03 3.145493e-20)	0	6.828272e+00	(1.285861e-02 3.910938e-03 -3.280694e-21)	0
0.0045        	rho           	1.399598e+00	(2.381117e-03 2.060787e-03 3.145493e-20)	0	5.033465e+00	(1.285861e-02 3.910938e-03 -3.280694e-21)	0
0.0045        	p             	9.996041e-01	(2.381117e-03 2.060787e-03 3.145493e-20)	0	6.787715e+00	(1.285861e-02 3.910938e-03 -3.280694e-21)	0
0.00475       	rho           	1.399600e+00	(2.381117e-03 2.060787e-03 3.145493e-20)	0	5.013703e+00	(1.285861e-02 3.910938e-03 -3.280694e-21)	0
0.00475       	p             	9.996051e-01	(2.381117e-03 2.060787e-03 3.145493e-20)	0	6.743378e+00	(1.285861e-02 3.910938e-03 -3.280694e-21)	0
0.005         	rho           	1.399698e+00	(1.381111e-02 6.953474e-03 -3.686504e-20)	0	5.057658e+00	(1.190611e-02 3.656514e-03 -1.474061e-20)	0
0.005         	p             	9.996599e-01	(1.381111e-02 6.953474e-03 -3.686504e-20)	0	6.821398e+00	(1.190611e-02 3.656514e-03 -1.474061e-20)	0
0.00525       	rho           	1.399745e+00	(8.096115e-03 4.516701e-03 6.186963e-20)	0	5.086143e+00	(1.190611e-02 3.656514e-03 -1.474061e-20)	0
0.00525       	p             	9.997085e-01	(8.096115e-03 4.516701e-03 6.186963e-20)	0	6.883562e+00	(1.190611e-02 3.656514e-03 -1.474061e-20)	0
0.0055        	rho           	1.399756e+00	(8.096115e-03 4.516701e-03 6.186963e-20)	0	5.079848e+00	(1.285861e-02 3.910938e-03 -3.280694e-21)	0
0.0055        	p             	9.997212e-01	(8.096115e-03 4.516701e-03 6.186963e-20)	0	6.875447e+00	(1.285861e-02 3.910938e-03 -3.280694e-21)	0
0.00575       	rho           	1.399536e+00	(2.381117e-03 2.060787e-03 3.145493e-20)	0	5.046882e+00	(1.285861e-02 3.910938e-03 -3.280694e-21)	0
0.00575       	p             	9.995417e-01	(2.381117e-03 2.060787e-03 3.145493e-20)	0	6.811365e+00	(1.285861e-02 3.910938e-03 -3.280694e-21)	0
0.006         	rho           	1.399572e+00	(2.381117e-03 2.060787e-03 3.145493e-20)	0	4.997836e+00	(1.381111e-02 4.165362e-03 -1.674259e-19)	0
0.006         	p             	9.995776e-01	(2.381117e-03 2.060787e-03 3.145493e-20)	0	6.714957e+00	(1.381111e-02 4.165362e-03 -1.674259e-19)	0
0.00625       	rho           	1.399700e+00	(1.381111e-02 6.953474e-03 -3.686504e-20)	0	5.066884e+00	(1.190611e-02 3.656514e-03 -1.474061e-20)	0
0.00625       	p             	9.996621e-01	(1.381111e-02 6.953474e-03 -3.686504e-20)	0	6.837048e+00	(1.190611e-02 3.656514e-03 -1.474061e-20)	0
0.0065        	rho           	1.399741e+00	(2.143111e-02 1.078380e-02 -7.271384e-21)	1	5.088966e+00	(1.190611e-02 3.656514e-03 -1.474061e-20)	0
0.0065        	p             	9.996830e-01	(2.143111e-02 1.078380e-02 -7.271384e-21)	1	6.888717e+00	(1.190611e-02 3.656514e-03 -1.474061e-20)	0
0.00675       	rho           	1.399745e+00	(2.143111e-02 1.078380e-02 -7.271384e-21)	1	5.080196e+00	(1.285861e-02 3.910938e-03 -3.280694e-21)	0
0.00675       	p             	9.996882e-01	(2.143111e-02 1.078380e-02 -7.271384e-21)	1	6.876036e+00	(1.285861e-02 3.910938e-03 -3.280694e-21)	0
0.007         	rho           	1.399704e+00	(2.381117e-03 2.060787e-03 3.145493e-20)	0	5.051384e+00	(1.285861e-02 3.910938e-03 -3.280694e-21)	0
0.007         	p             	9.996901e-01	(1.762111e-02 8.875019e-03 2.749849e-19)	0	6.820837e+00	(1.285861e-02 3.910938e-03 -3.280694e-21)	0
0.00725       	rho           	1.399539e+00	(2.381117e-03 2.060787e-03 3.145493e-20)	0	5.009021e+00	(1.095361e-02 3.402090e-03 1.576277e-19)	0
0.00725       	p             	9.995444e-01	(2.381117e-03 2.060787e-03 3.145493e-20)	0	6.718186e+00	(1.381111e-02 4.165362e-03 -1.674259e-19)	0
0.0075        	rho           	1.399587e+00	(2.381117e-03 2.060787e-03 3.145493e-20)	0	5.065209e+00	(1.190611e-02 3.656514e-03 -1.474061e-20)	0
0.0075        	p             	9.995904e-01	(2.381117e-03 2.060787e-03 3.145493e-20)	0	6.833527e+00	(1.190611e-02 3.656514e-03 -1.474061e-20)	0
0.00775       	rho           	1.399740e+00	(1.762111e-02 8.875019e-03 2.749849e-19)	0	5.088306e+00	(1.190611e-02 3.656514e-03 -1.474061e-20)	0
0.00775       	p             	9.996747e-01	(1.762111e-02 8.875019e-03 2.749849e-19)	0	6.887865e+00	(1.190611e-02 3.656514e-03 -1.474061e-20)	0
0.008         	rho           	1.399735e+00	(1.762111e-02 8.875019e-03 2.749849e-19)	0	5.080006e+00	(1.285861e-02 3.910938e-03 -3.280694e-21)	0
0.008         	p             	9.996684e-01	(1.762111e-02 8.875019e-03 2.749849e-19)	0	6.876487e+00	(1.285861e-02 3.910938e-03 -3.280694e-21)	0
0.00825       	rho           	1.399753e+00	(2.143111e-02 1.078380e-02 -7.271384e-21)	1	5.052318e+00	(1.285861e-02 3.910938e-03 -3.280694e-21)	0
0.00825       	p             	9.996975e-01	(2.143111e-02 1.078380e-02 -7.271384e-21)	1	6.825551e+00	(1.285861e-02 3.910938e-03 -3.280694e-21)	0
0.0085        	rho           	1.399538e+00	(2.381117e-03 2.060787e-03 3.145493e-20)	0	5.013134e+00	(1.095361e-02 3.402090e-03 1.576277e-19)	0
0.0085        	p             	9.995454e-01	(2.381117e-03 2.060787e-03 3.145493e-20)	0	6.724532e+00	(1.381111e-02 4.165362e-03 -1.674259e-19)	0
0.00875       	rho           	1.399568e+00	(2.381117e-03 2.060787e-03 3.145493e-20)	0	5.066531e+00	(1.190611e-02 3.656514e-03 -1.474061e-20)	0
0.00875       	p             	9.995721e-01	(2.381117e-03 2.060787e-03 3.145493e-20)	0	6.832740e+00	(1.190611e-02 3.656514e-03 -1.474061e-20)	0
0.009         	rho           	1.399744e+00	(8.096115e-03 4.516701e-03 6.186963e-20)	0	5.089827e+00	(1.190611e-02 3.656514e-03 -1.474061e-20)	0
0.009         	p             	9.997058e-01	(8.096115e-03 4.516701e-03 6.186963e-20)	0	6.885847e+00	(1.190611e-02 3.656514e-03 -1.474061e-20)	0
0.00925       	rho           	1.399735e+00	(1.762111e-02 8.875019e-03 2.749849e-19)	0	5.081012e+00	(1.285861e-02 3.910938e-03 -3.280694e-21)	0
0.00925       	p             	9.996645e-01	(1.762111e-02 8.875019e-03 2.749849e-19)	0	6.874988e+00	(1.285861e-02 3.910938e-03 -3.280694e-21)	0
0.0095        	rho           	1.399738e+00	(1.762111e-02 8.875019e-03 2.749849e-19)	0	5.054059e+00	(1.285861e-02 3.910938e-03 -3.280694e-21)	0
0.0095        	p             	9.996717e-01	(1.762111e-02 8.875019e-03 2.749849e-19)	0	6.828459e+00	(1.285861e-02 3.910938e-03 -3.280694e-21)	0
0.00975       	rho           	1.399592e+00	(2.381117e-03 2.060787e-03 3.145493e-20)	0	5.017486e+00	(1.095361e-02 3.402090e-03 1.576277e-19)	0
0.00975       	p             	9.996022e-01	(2.381117e-03 2.060787e-03 3.145493e-20)	0	6.722651e+00	(1.095361e-02 3.402090e-03 1.576277e-19)	0
0.01          	rho           	1.399552e+00	(2.381117e-03 2.060787e-03 3.145493e-20)	0	5.060515e+00	(1.190611e-02 3.656514e-03 -1.474061e-20)	0
0.01          	p             	9.995564e-01	(2.381117e-03 2.060787e-03 3.145493e-20)	0	6.824786e+00	(1.190611e-02 3.656514e-03 -1.474061e-20)	0
0.01025       	rho           	1.399672e+00	(1.381111e-02 6.953474e-03 -3.686504e-20)	0	5.085286e+00	(1.190611e-02 3.656514e-03 -1.474061e-20)	0
0.01025       	p             	9.996314e-01	(1.381111e-02 6.953474e-03 -3.686504e-20)	0	6.876355e+00	(1.190611e-02 3.656514e-03 -1.474061e-20)	0
0.0105        	rho           	1.399757e+00	(8.096115e-03 4.516701e-03 6.186963e-20)	0	5.076918e+00	(1.285861e-02 3.910938e-03 -3.280694e-21)	0
0.0105        	p             	9.997225e-01	(8.096115e-03 4.516701e-03 6.186963e-20)	0	6.865726e+00	(1.285861e-02 3.910938e-03 -3.280694e-21)	0
0.01075       	rho           	1.399715e+00	(1.762111e-02 8.875019e-03 2.749849e-19)	0	5.056653e+00	(1.285861e-02 3.910938e-03 -3.280694e-21)	0
0.01075       	p             	9.996440e-01	(1.762111e-02 8.875019e-03 2.749849e-19)	0	6.828692e+00	(1.285861e-02 3.910938e-03 -3.280694e-21)	0
0.011         	rho           	1.399672e+00	(2.381117e-03 2.060787e-03 3.145493e-20)	0	5.005963e+00	(1.095361e-02 3.402090e-03 1.576277e-19)	0
0.011         	p             	9.996696e-01	(2.143111e-02 1.078380e-02 -7.271384e-21)	1	6.725469e+00	(1.381111e-02 4.165362e-03 -1.674259e-19)	0
0.01125       	rho           	1.399543e+00	(2.381117e-03 2.060787e-03 3.145493e-20)	0	5.057950e+00	(1.095361e-02 3.402090e-03 1.576277e-19)	0
0.01125       	p             	9.995478e-01	(2.381117e-03 2.060787e-03 3.145493e-20)	0	6.803957e+00	(1.190611e-02 3.656514e-03 -1.474061e-20)	0
0.0115        	rho           	1.399659e+00	(1.381111e-02 6.953474e-03 -3.686504e-20)	0	5.077311e+00	(1.190611e-02 3.656514e-03 -1.474061e-20)	0
0.0115        	p             	9.996159e-01	(1.381111e-02 6.953474e-03 -3.686504e-20)	0	6.865480e+00	(1.190611e-02 3.656514e-03 -1.474061e-20)	0
0.01175       	rho           	1.399757e+00	(8.096115e-03 4.516701e-03 6.186963e-20)	0	5.071165e+00	(1.285861e-02 3.910938e-03 -3.280694e-21)	0
0.01175       	p             	9.997220e-01	(8.096115e-03 4.516701e-03 6.186963e-20)	0	6.855923e+00	(1.285861e-02 3.910938e-03 -3.280694e-21)	0
0.012         	rho           	1.399762e+00	(1.428617e-03 1.807958e-03 1.941034e-20)	0	5.059376e+00	(1.285861e-02 3.910938e-03 -3.280694e-21)	0
0.012         	p             	9.996950e-01	(1.762111e-02 8.875019e-03 2.749849e-19)	0	6.830593e+00	(1.285861e-02 3.910938e-03 -3.280694e-21)	0
0.01225       	rho           	1.399728e+00	(1.762111e-02 8.875019e-03 2.749849e-19)	0	5.010912e+00	(1.381111e-02 4.165362e-03 -1.674259e-19)	0
0.01225       	p             	9.996613e-01	(1.762111e-02 8.875019e-03 2.749849e-19)	0	6.741494e+00	(1.381111e-02 4.165362e-03 -1.674259e-19)	0
0.0125        	rho           	1.399535e+00	(2.381117e-03 2.060787e-03 3.145493e-20)	0	5.055252e+00	(1.095361e-02 3.402090e-03 1.576277e-19)	0
0.0125        	p             	9.995407e-01	(2.381117e-03 2.060787e-03 3.145493e-20)	0	6.802277e+00	(1.095361e-02 3.402090e-03 1.576277e-19)	0
0.01275       	rho           	1.399589e+00	(2.381117e-03 2.060787e-03 3.145493e-20)	0	5.073520e+00	(1.190611e-02 3.656514e-03 -1.474061e-20)	0
0.01275       	p             	9.995922e-01	(2.381117e-03 2.060787e-03 3.145493e-20)	0	6.862291e+00	(1.190611e-02 3.656514e-03 -1.474061e-20)	0
0.013         	rho           	1.399738e+00	(3.381361e-02 1.667525e-02 -1.836135e-19)	1	5.071066e+00	(1.190611e-02 3.656514e-03 -1.474061e-20)	0
0.013         	p             	9.996889e-01	(3.381361e-02 1.667525e-02 -1.836135e-19)	1	6.852463e+00	(1.285861e-02 3.910938e-03 -3.280694e-21)	0
0.01325       	rho           	1.399763e+00	(1.428617e-03 1.807958e-03 1.941034e-20)	0	5.062046e+00	(1.285861e-02 3.910938e-03 -3.280694e-21)	0
0.01325       	p             	9.997189e-01	(2.524111e-02 1.267982e-02 -1.021841e-20)	1	6.834642e+00	(1.285861e-02 3.910938e-03 -3.280694e-21)	0
0.0135        	rho           	1.399723e+00	(1.762111e-02 8.875019e-03 2.749849e-19)	0	5.019826e+00	(1.381111e-02 4.165362e-03 -1.674259e-19)	0
0.0135        	p             	9.996553e-01	(1.762111e-02 8.875019e-03 2.749849e-19)	0	6.756266e+00	(1.381111e-02 4.165362e-03 -1.674259e-19)	0
0.01375       	rho           	1.399533e+00	(2.381117e-03 2.060787e-03 3.145493e-20)	0	5.052970e+00	(1.095361e-02 3.402090e-03 1.576277e-19)	0
0.01375       	p             	9.995386e-01	(2.381117e-03 2.060787e-03 3.145493e-20)	0	6.802558e+00	(1.095361e-02 3.402090e-03 1.576277e-19)	0
0.014         	rho           	1.399579e+00	(2.381117e-03 2.060787e-03 3.145493e-20)	0	5.073352e+00	(1.190611e-02 3.656514e-03 -1.474061e-20)	0
0.014         	p             	9.995824e-01	(2.381117e-03 2.060787e-03 3.145493e-20)	0	6.863544e+00	(1.190611e-02 3.656514e-03 -1.474061e-20)	0
0.01425       	rho           	1.399718e+00	(3.381361e-02 1.667525e-02 -1.836135e-19)	1	5.076237e+00	(1.190611e-02 3.656514e-03 -1.474061e-20)	0
0.01425       	p             	9.996676e-01	(3.381361e-02 1.667525e-02 -1.836135e-19)	1	6.852639e+00	(1.285861e-02 3.910938e-03 -3.280694e-21)	0
0.0145        	rho           	1.399750e+00	(4.238611e-02 2.061325e-02 2.185767e-19)	1	5.065544e+00	(1.285861e-02 3.910938e-03 -3.280694e-21)	0
0.0145        	p             	9.997083e-01	(4.238611e-02 2.061325e-02 2.185767e-19)	1	6.841673e+00	(1.285861e-02 3.910938e-03 -3.280694e-21)	0
0.01475       	rho           	1.399724e+00	(1.762111e-02 8.875019e-03 2.749849e-19)	0	5.025390e+00	(1.381111e-02 4.165362e-03 -1.674259e-19)	0
0.01475       	p             	9.996534e-01	(1.762111e-02 8.875019e-03 2.749849e-19)	0	6.765638e+00	(1.381111e-02 4.165362e-03 -1.674259e-19)	0
0.015         	rho           	1.399535e+00	(2.381117e-03 2.060787e-03 3.145493e-20)	0	5.050447e+00	(1.095361e-02 3.402090e-03 1.576277e-19)	0
0.015         	p             	9.995413e-01	(2.381117e-03 2.060787e-03 3.145493e-20)	0	6.800655e+00	(1.095361e-02 3.402090e-03 1.576277e-19)	0
0.01525       	rho           	1.399571e+00	(2.381117e-03 2.060787e-03 3.145493e-20)	0	5.073483e+00	(1.190611e-02 3.656514e-03 -1.474061e-20)	0
0.01525       	p             	9.995747e-01	(2.381117e-03 2.060787e-03 3.145493e-20)	0	6.864743e+00	(1.190611e-02 3.656514e-03 -1.474061e-20)	0
0.0155        	rho           	1.399710e+00	(3.381361e-02 1.667525e-02 -1.836135e-19)	1	5.080004e+00	(1.190611e-02 3.656514e-03 -1.474061e-20)	0
0.0155        	p             	9.996577e-01	(3.381361e-02 1.667525e-02 -1.836135e-19)	1	6.858781e+00	(1.190611e-02 3.656514e-03 -1.474061e-20)	0
0.01575       	rho           	1.399749e+00	(3.381361e-02 1.667525e-02 -1.836135e-19)	1	5.068907e+00	(1.285861e-02 3.910938e-03 -3.280694e-21)	0
0.01575       	p             	9.997065e-01	(3.381361e-02 1.667525e-02 -1.836135e-19)	1	6.849029e+00	(1.285861e-02 3.910938e-03 -3.280694e-21)	0
0.016         	rho           	1.399754e+00	(5.095860e-02 2.449382e-02 -4.019534e-20)	1	5.030294e+00	(1.381111e-02 4.165362e-03 -1.674259e-19)	0
0.016         	p             	9.996863e-01	(1.762111e-02 8.875019e-03 2.749849e-19)	0	6.775697e+00	(1.285861e-02 3.910938e-03 -3.280694e-21)	0
0.01625       	rho           	1.399544e+00	(2.381117e-03 2.060787e-03 3.145493e-20)	0	5.045603e+00	(1.095361e-02 3.402090e-03 1.576277e-19)	0
0.01625       	p             	9.995515e-01	(2.381117e-03 2.060787e-03 3.145493e-20)	0	6.793162e+00	(1.095361e-02 3.402090e-03 1.576277e-19)	0
0.0165        	rho           	1.399563e+00	(2.381117e-03 2.060787e-03 3.145493e-20)	0	5.073084e+00	(1.190611e-02 3.656514e-03 -1.474061e-20)	0
0.0165        	p             	9.995677e-01	(2.381117e-03 2.060787e-03 3.145493e-20)	0	6.863843e+00	(1.190611e-02 3.656514e-03 -1.474061e-20)	0
0.01675       	rho           	1.399719e+00	(3.381361e-02 1.667525e-02 -1.836135e-19)	1	5.083301e+00	(1.190611e-02 3.656514e-03 -1.474061e-20)	0
0.01675       	p             	9.996647e-01	(3.381361e-02 1.667525e-02 -1.836135e-19)	1	6.868827e+00	(1.190611e-02 3.656514e-03 -1.474061e-20)	0
0.017         	rho           	1.399718e+00	(3.381361e-02 1.667525e-02 -1.836135e-19)	1	5.072868e+00	(1.285861e-02 3.910938e-03 -3.280694e-21)	0
0.017         	p             	9.996669e-01	(3.381361e-02 1.667525e-02 -1.836135e-19)	1	6.857701e+00	(1.285861e-02 3.910938e-03 -3.280694e-21)	0
0.01725       	rho           	1.399753e+00	(5.095860e-02 2.449382e-02 -4.019534e-20)	1	5.038957e+00	(1.285861e-02 3.910938e-03 -3.280694e-21)	0
0.01725       	p             	9.997098e-01	(5.095860e-02 2.449382e-02 -4.019534e-20)	1	6.790969e+00	(1.285861e-02 3.910938e-03 -3.280694e-21)	0
0.0175        	rho           	1.399566e+00	(2.381117e-03 2.060787e-03 3.145493e-20)	0	5.037851e+00	(1.095361e-02 3.402090e-03 1.576277e-19)	0
0.0175        	p             	9.995744e-01	(2.381117e-03 2.060787e-03 3.145493e-20)	0	6.778269e+00	(1.095361e-02 3.402090e-03 1.576277e-19)	0
0.01775       	rho           	1.399556e+00	(2.381117e-03 2.060787e-03 3.145493e-20)	0	5.071662e+00	(1.190611e-02 3.656514e-03 -1.474061e-20)	0
0.01775       	p             	9.995608e-01	(2.381117e-03 2.060787e-03 3.145493e-20)	0	6.859676e+00	(1.190611e-02 3.656514e-03 -1.474061e-20)	0
0.018         	rho           	1.399720e+00	(4.238611e-02 2.061325e-02 2.185767e-19)	1	5.086078e+00	(1.190611e-02 3.656514e-03 -1.474061e-20)	0
0.018         	p             	9.996715e-01	(4.238611e-02 2.061325e-02 2.185767e-19)	1	6.877400e+00	(1.190611e-02 3.656514e-03 -1.474061e-20)	0
0.01825       	rho           	1.399710e+00	(3.381361e-02 1.667525e-02 -1.836135e-19)	1	5.076744e+00	(1.285861e-02 3.910938e-03 -3.280694e-21)	0
0.01825       	p             	9.996583e-01	(3.381361e-02 1.667525e-02 -1.836135e-19)	1	6.866045e+00	(1.285861e-02 3.910938e-03 -3.280694e-21)	0
0.0185        	rho           	1.399760e+00	(8.096115e-03 4.516701e-03 6.186963e-20)	0	5.047764e+00	(1.285861e-02 3.910938e-03 -3.280694e-21)	0
0.0185        	p             	9.997272e-01	(8.096115e-03 4.516701e-03 6.186963e-20)	0	6.807063e+00	(1.285861e-02 3.910938e-03 -3.280694e-21)	0
0.01875       	rho           	1.399608e+00	(2.381117e-03 2.060787e-03 3.145493e-20)	0	5.026178e+00	(1.095361e-02 3.402090e-03 1.576277e-19)	0
0.01875       	p             	9.996193e-01	(2.381117e-03 2.060787e-03 3.145493e-20)	0	6.753956e+00	(1.095361e-02 3.402090e-03 1.576277e-19)	0
0.019         	rho           	1.399549e+00	(2.381117e-03 2.060787e-03 3.145493e-20)	0	5.068184e+00	(1.190611e-02 3.656514e-03 -1.474061e-20)	0
0.019         	p             	9.995532e-01	(2.381117e-03 2.060787e-03 3.145493e-20)	0	6.850525e+00	(1.190611e-02 3.656514e-03 -1.474061e-20)	0
0.01925       	rho           	1.399731e+00	(2.143111e-02 1.078380e-02 -7.271384e-21)	1	5.088133e+00	(1.190611e-02 3.656514e-03 -1.474061e-20)	0
0.01925       	p             	9.996709e-01	(2.143111e-02 1.078380e-02 -7.271384e-21)	1	6.883699e+00	(1.190611e-02 3.656514e-03 -1.474061e-20)	0
0.0195        	rho           	1.399710e+00	(3.381361e-02 1.667525e-02 -1.836135e-19)	1	5.080301e+00	(1.285861e-02 3.910938e-03 -3.280694e-21)	0
0.0195        	p             	9.996556e-01	(3.381361e-02 1.667525e-02 -1.836135e-19)	1	6.873383e+00	(1.285861e-02 3.910938e-03 -3.280694e-21)	0
0.01975       	rho           	1.399745e+00	(5.953110e-02 2.831697e-02 -8.623838e-21)	1	5.056330e+00	(1.285861e-02 3.910938e-03 -3.280694e-21)	0
0.01975       	p             	9.996986e-01	(5.953110e-02 2.831697e-02 -8.623838e-21)	1	6.822978e+00	(1.285861e-02 3.910938e-03 -3.280694e-21)	0
0.02          	rho           	1.399669e+00	(1.381111e-02 6.953474e-03 -3.686504e-20)	0	5.009258e+00	(1.095361e-02 3.402090e-03 1.576277e-19)	0
0.02          	p             	9.996252e-01	(1.381111e-02 6.953474e-03 -3.686504e-20)	0	6.727775e+00	(1.381111e-02 4.165362e-03 -1.674259e-19)	0
0.02025       	rho           	1.399541e+00	(2.381117e-03 2.060787e-03 3.145493e-20)	0	5.061313e+00	(1.190611e-02 3.656514e-03 -1.474061e-20)	0
0.02025       	p             	9.995462e-01	(2.381117e-03 2.060787e-03 3.145493e-20)	0	6.834550e+00	(1.190611e-02 3.656514e-03 -1.474061e-20)	0
0.0205        	rho           	1.399707e+00	(2.381117e-03 2.060787e-03 3.145493e-20)	0	5.089064e+00	(1.190611e-02 3.656514e-03 -1.474061e-20)	0
0.0205        	p             	9.996574e-01	(2.143111e-02 1.078380e-02 -7.271384e-21)	1	6.887268e+00	(1.190611e-02 3.656514e-03 -1.474061e-20)	0
0.02075       	rho           	1.399727e+00	(4.238611e-02 2.061325e-02 2.185767e-19)	1	5.083105e+00	(1.285861e-02 3.910938e-03 -3.280694e-21)	0
0.02075       	p             	9.996809e-01	(3.381361e-02 1.667525e-02 -1.836135e-19)	1	6.878964e+00	(1.285861e-02 3.910938e-03 -3.280694e-21)	0
0.021         	rho           	1.399713e+00	(3.381361e-02 1.667525e-02 -1.836135e-19)	1	5.063874e+00	(1.285861e-02 3.910938e-03 -3.280694e-21)	0
0.021         	p             	9.996621e-01	(3.381361e-02 1.667525e-02 -1.836135e-19)	1	6.837063e+00	(1.285861e-02 3.910938e-03 -3.280694e-21)	0
0.02125       	rho           	1.399667e+00	(1.381111e-02 6.953474e-03 -3.686504e-20)	0	5.014980e+00	(1.381111e-02 4.165362e-03 -1.674259e-19)	0
0.02125       	p             	9.996231e-01	(1.381111e-02 6.953474e-03 -3.686504e-20)	0	6.743800e+00	(1.381111e-02 4.165362e-03 -1.674259e-19)	0
0.0215        	rho           	1.399535e+00	(2.381117e-03 2.060787e-03 3.145493e-20)	0	5.061687e+00	(1.095361e-02 3.402090e-03 1.576277e-19)	0
0.0215        	p             	9.995404e-01	(2.381117e-03 2.060787e-03 3.145493e-20)	0	6.815953e+00	(1.095361e-02 3.402090e-03 1.576277e-19)	0
0.02175       	rho           	1.399587e+00	(2.381117e-03 2.060787e-03 3.145493e-20)	0	5.089083e+00	(1.190611e-02 3.656514e-03 -1.474061e-20)	0
0.02175       	p             	9.995901e-01	(2.381117e-03 2.060787e-03 3.145493e-20)	0	6.888537e+00	(1.190611e-02 3.656514e-03 -1.474061e-20)	0
0.022         	rho           	1.399722e+00	(4.238611e-02 2.061325e-02 2.185767e-19)	1	5.085066e+00	(1.285861e-02 3.910938e-03 -3.280694e-21)	0
0.022         	p             	9.996710e-01	(2.143111e-02 1.078380e-02 -7.271384e-21)	1	6.882512e+00	(1.285861e-02 3.910938e-03 -3.280694e-21)	0
0.02225       	rho           	1.399712e+00	(3.381361e-02 1.667525e-02 -1.836135e-19)	1	5.070737e+00	(1.285861e-02 3.910938e-03 -3.280694e-21)	0
0.02225       	p             	9.996591e-01	(3.381361e-02 1.667525e-02 -1.836135e-19)	1	6.850252e+00	(1.285861e-02 3.910938e-03 -3.280694e-21)	0
0.0225        	rho           	1.399695e+00	(1.381111e-02 6.953474e-03 -3.686504e-20)	0	5.023672e+00	(1.381111e-02 4.165362e-03 -1.674259e-19)	0
0.0225        	p             	9.996547e-01	(1.381111e-02 6.953474e-03 -3.686504e-20)	0	6.760667e+00	(1.381111e-02 4.165362e-03 -1.674259e-19)	0
0.02275       	rho           	1.399533e+00	(2.381117e-03 2.060787e-03 3.145493e-20)	0	5.059177e+00	(1.095361e-02 3.402090e-03 1.576277e-19)	0
0.02275       	p             	9.995387e-01	(2.381117e-03 2.060787e-03 3.145493e-20)	0	6.813044e+00	(1.095361e-02 3.402090e-03 1.576277e-19)	0
0.023         	rho           	1.399578e+00	(2.381117e-03 2.060787e-03 3.145493e-20)	0	5.088606e+00	(1.190611e-02 3.656514e-03 -1.474061e-20)	0
0.023         	p             	9.995813e-01	(2.381117e-03 2.060787e-03 3.145493e-20)	0	6.888365e+00	(1.190611e-02 3.656514e-03 -1.474061e-20)	0
0.02325       	rho           	1.399721e+00	(2.143111e-02 1.078380e-02 -7.271384e-21)	1	5.084372e+00	(1.285861e-02 3.910938e-03 -3.280694e-21)	0
0.02325       	p             	9.996588e-01	(2.143111e-02 1.078380e-02 -7.271384e-21)	1	6.880602e+00	(1.285861e-02 3.910938e-03 -3.280694e-21)	0
0.0235        	rho           	1.399713e+00	(3.381361e-02 1.667525e-02 -1.836135e-19)	1	5.076145e+00	(1.285861e-02 3.910938e-03 -3.280694e-21)	0
0.0235        	p             	9.996585e-01	(3.381361e-02 1.667525e-02 -1.836135e-19)	1	6.861008e+00	(1.285861e-02 3.910938e-03 -3.280694e-21)	0
0.02375       	rho           	1.399755e+00	(8.096115e-03 4.516701e-03 6.186963e-20)	0	5.030488e+00	(1.381111e-02 4.165362e-03 -1.674259e-19)	0
0.02375       	p             	9.997212e-01	(8.096115e-03 4.516701e-03 6.186963e-20)	0	6.774664e+00	(1.381111e-02 4.165362e-03 -1.674259e-19)	0
0.024         	rho           	1.399539e+00	(2.381117e-03 2.060787e-03 3.145493e-20)	0	5.054636e+00	(1.095361e-02 3.402090e-03 1.576277e-19)	0
0.024         	p             	9.995458e-01	(2.381117e-03 2.060787e-03 3.145493e-20)	0	6.805077e+00	(1.095361e-02 3.402090e-03 1.576277e-19)	0
0.02425       	rho           	1.399568e+00	(2.381117e-03 2.060787e-03 3.145493e-20)	0	5.086822e+00	(1.190611e-02 3.656514e-03 -1.474061e-20)	0
0.02425       	p             	9.995724e-01	(2.381117e-03 2.060787e-03 3.145493e-20)	0	6.885179e+00	(1.190611e-02 3.656514e-03 -1.474061e-20)	0
0.0245        	rho           	1.399729e+00	(2.143111e-02 1.078380e-02 -7.271384e-21)	1	5.090118e+00	(1.190611e-02 3.656514e-03 -1.474061e-20)	0
0.0245        	p             	9.996653e-01	(2.143111e-02 1.078380e-02 -7.271384e-21)	1	6.880160e+00	(1.190611e-02 3.656514e-03 -1.474061e-20)	0
0.02475       	rho           	1.399732e+00	(4.238611e-02 2.061325e-02 2.185767e-19)	1	5.080223e+00	(1.285861e-02 3.910938e-03 -3.280694e-21)	0
0.02475       	p             	9.996777e-01	(2.143111e-02 1.078380e-02 -7.271384e-21)	1	6.869539e+00	(1.285861e-02 3.910938e-03 -3.280694e-21)	0
0.025         	rho           	1.399719e+00	(3.381361e-02 1.667525e-02 -1.836135e-19)	1	5.035091e+00	(1.381111e-02 4.165362e-03 -1.674259e-19)	0
0.025         	p             	9.996682e-01	(3.381361e-02 1.667525e-02 -1.836135e-19)	1	6.784861e+00	(1.381111e-02 4.165362e-03 -1.674259e-19)	0
0.02525       	rho           	1.399560e+00	(2.381117e-03 2.060787e-03 3.145493e-20)	0	5.046482e+00	(1.095361e-02 3.402090e-03 1.576277e-19)	0
0.02525       	p             	9.995686e-01	(2.381117e-03 2.060787e-03 3.145493e-20)	0	6.789783e+00	(1.095361e-02 3.402090e-03 1.576277e-19)	0
0.0255        	rho           	1.399559e+00	(2.381117e-03 2.060787e-03 3.145493e-20)	0	5.081597e+00	(1.190611e-02 3.656514e-03 -1.474061e-20)	0
0.0255        	p             	9.995630e-01	(2.381117e-03 2.060787e-03 3.145493e-20)	0	6.874976e+00	(1.190611e-02 3.656514e-03 -1.474061e-20)	0
0.02575       	rho           	1.399730e+00	(1.762111e-02 8.875019e-03 2.749849e-19)	0	5.092714e+00	(1.190611e-02 3.656514e-03 -1.474061e-20)	0
0.02575       	p             	9.996634e-01	(1.762111e-02 8.875019e-03 2.749849e-19)	0	6.887675e+00	(1.190611e-02 3.656514e-03 -1.474061e-20)	0
0.026         	rho           	1.399726e+00	(4.238611e-02 2.061325e-02 2.185767e-19)	1	5.082187e+00	(1.285861e-02 3.910938e-03 -3.280694e-21)	0
0.026         	p             	9.996664e-01	(2.143111e-02 1.078380e-02 -7.271384e-21)	1	6.874531e+00	(1.285861e-02 3.910938e-03 -3.280694e-21)	0