# Region type : patch obstacle
# Faces       : 160
# Area        : 3.155522e-03
# Scale factor: 1.000000e+00
# Time        	areaAverage(p)
0.00025       	1.369365e+00
0.0005        	1.776523e+00
0.00075       	2.219700e+00
0.001         	2.685624e+00
0.00125       	3.157186e+00
0.0015        	3.620431e+00
0.00175       	4.064816e+00
0.002         	4.481278e+00
0.00225       	4.861870e+00
0.0025        	5.199804e+00
0.00275       	5.489110e+00
0.003         	5.725072e+00
0.00325       	5.904624e+00
0.0035        	6.025731e+00
0.00375       	6.085880e+00
0.004         	6.085672e+00
0.00425       	6.036650e+00
0.0045        	5.955052e+00
0.00475       	5.851760e+00
0.005         	5.733978e+00
0.00525       	5.607416e+00
0.0055        	5.476457e+00
0.00575       	5.344791e+00
0.006         	5.215653e+00
0.00625       	5.091953e+00
0.0065        	4.976415e+00
0.00675       	4.871245e+00
0.007         	4.777850e+00
0.00725       	4.697825e+00
0.0075        	4.633448e+00
0.00775       	4.585641e+00
0.008         	4.553150e+00
0.00825       	4.534039e+00
0.0085        	4.524762e+00
0.00875       	4.522265e+00
0.009         	4.524594e+00
0.00925       	4.530386e+00
0.0095        	4.538561e+00
0.00975       	4.548250e+00
0.01          	4.558740e+00
0.01025       	4.569543e+00
0.0105        	4.580320e+00
0.01075       	4.590761e+00
0.011         	4.600619e+00
0.01125       	4.609778e+00
0.0115        	4.618136e+00
0.01175       	4.625628e+00
0.012         	4.632269e+00
0.01225       	4.637972e+00
0.0125        	4.642720e+00
0.01275       	4.646636e+00
0.013         	4.649937e+00
0.01325       	4.652695e+00
0.0135        	4.655049e+00
0.01375       	4.657176e+00
0.014         	4.659192e+00
0.01425       	4.661221e+00
0.0145        	4.663297e+00
0.01475       	4.665421e+00
0.015         	4.667563e+00
0.01525       	4.669627e+00
0.0155        	4.671440e+00
0.01575       	4.672962e+00
0.016         	4.674273e+00
0.01625       	4.675359e+00
0.0165        	4.676231e+00
0.01675       	4.676990e+00
0.017         	4.677631e+00
0.01725       	4.678154e+00
0.0175        	4.678581e+00
0.01775       	4.678894e+00
0.018         	4.679008e+00
0.01825       	4.678873e+00
0.0185        	4.678537e+00
0.01875       	4.678070e+00
0.019         	4.677575e+00
0.01925       	4.677177e+00
0.0195        	4.676908e+00
0.01975       	4.676723e+00
0.02          	4.676656e+00
0.02025       	4.676650e+00
0.0205        	4.676665e+00
0.02075       	4.676671e+00
0.021         	4.676689e+00
0.02125       	4.676684e+00
0.0215        	4.676650e+00
0.02175       	4.676740e+00
0.022         	4.676967e+00
0.02225       	4.677327e+00
0.0225        	4.677773e+00
0.02275       	4.678270e+00
0.023         	4.678721e+00
0.02325       	4.679049e+00
0.0235        	4.679270e+00
0.02375       	4.679393e+00
0.024         	4.679456e+00
0.02425       	4.679555e+00
0.0245        	4.679715e+00
0.02475       	4.679925e+00
0.025         	4.680204e+00
0.02525       	4.680529e+00
0.0255        	4.680831e+00
0.02575       	4.681064e+00
0.026         	4.681215e+00
0.02625       	4.681285e+00
0.0265        	4.681307e+00
0.02675       	4.681355e+00
0.027         	4.681443e+00
0.02725       	4.681621e+00
0.0275        	4.681846e+00
0.02775       	4.682060e+00
0.028         	4.682230e+00
0.02825       	4.682328e+00
0.0285        	4.682359e+00
0.02875       	4.682322e+00
0.029         	4.682230e+00
0.02925       	4.682183e+00
0.0295        	4.682177e+00
0.02975       	4.682191e+00
0.03          	4.682229e+00
0.03025       	4.682306e+00
0.0305        	4.682396e+00
0.03075       	4.682439e+00
0.031         	4.682428e+00
0.03125       	4.682402e+00
0.0315        	4.682333e+00
0.03175       	4.682278e+00
0.032         	4.682245e+00
0.03225       	4.682284e+00
0.0325        	4.682380e+00
0.03275       	4.682470e+00
0.033         	4.682551e+00
0.03325       	4.682615e+00
0.0335        	4.682631e+00
0.03375       	4.682623e+00
0.034         	4.682525e+00
0.03425       	4.682398e+00
0.0345        	4.682334e+00
0.03475       	4.682331e+00
0.035         	4.682411e+00
0.03525       	4.682515e+00
0.0355        	4.682604e+00
0.03575       	4.682659e+00
0.036         	4.682641e+00
0.03625       	4.682604e+00
0.0365        	4.682554e+00
0.03675       	4.682467e+00
0.037         	4.682406e+00
0.03725       	4.682408e+00
0.0375        	4.682463e+00
0.03775       	4.682517e+00
0.038         	4.682511e+00
0.03825       	4.682419e+00
0.0385        	4.682216e+00
0.03875       	4.681954e+00
0.039         	4.681722e+00
0.03925       	4.681528e+00
0.0395        	4.681412e+00
0.03975       	4.681385e+00
0.04          	4.681415e+00
0.04025       	4.681437e+00
0.0405        	4.681405e+00
0.04075       	4.681280e+00
0.041         	4.681038e+00
0.04125       	4.680704e+00
0.0415        	4.680395e+00
0.04175       	4.680174e+00
0.042         	4.680072e+00
0.04225       	4.680087e+00
0.0425        	4.680155e+00
0.04275       	4.680248e+00
0.043         	4.680302e+00
0.04325       	4.680283e+00
0.0435        	4.680169e+00
0.04375       	4.679937e+00
0.044         	4.679645e+00
0.04425       	4.679350e+00
0.0445        	4.679148e+00
0.04475       	4.679078e+00
0.045         	4.679086e+00
0.04525       	4.679127e+00
0.0455        	4.679163e+00
0.04575       	4.679146e+00
0.046         	4.679050e+00
0.04625       	4.678832e+00
0.0465        	4.678532e+00
0.04675       	4.678171e+00
0.047         	4.677854e+00
0.04725       	4.677661e+00
0.0475        	4.677601e+00
0.04775       	4.677657e+00
0.048         	4.677753e+00
0.04825       	4.677779e+00
0.0485        	4.677714e+00
0.04875       	4.677564e+00
0.049         	4.677350e+00
0.04925       	4.677066e+00
0.0495        	4.676813e+00
0.04975       	4.676681e+00
0.05          	4.676701e+00
0.05025       	4.676811e+00
0.0505        	4.676981e+00
0.05075       	4.677123e+00
0.051         	4.677189e+00
0.05125       	4.677162e+00
0.0515        	4.677068e+00
0.05175       	4.676916e+00
0.052         	4.676807e+00
0.05225       	4.676761e+00
0.0525        	4.676826e+00
0.05275       	4.677006e+00
0.053         	4.677307e+00
0.05325       	4.677708e+00
0.0535        	4.678153e+00
0.05375       	4.678571e+00
0.054         	4.678965e+00
0.05425       	4.679305e+00
0.0545        	4.679645e+00
0.05475       	4.680006e+00
0.055         	4.680393e+00
0.05525       	4.680846e+00
0.0555        	4.681400e+00
0.05575       	4.682053e+00
0.056         	4.682777e+00
0.05625       	4.683508e+00
0.0565        	4.684254e+00
0.05675       	4.684964e+00
0.057         	4.685636e+00
0.05725       	4.686311e+00
0.0575        	4.686949e+00
0.05775       	4.687573e+00
0.058         	4.688187e+00
0.05825       	4.688823e+00
0.0585        	4.689500e+00
0.05875       	4.690163e+00
0.059         	4.690825e+00
0.05925       	4.691475e+00
0.0595        	4.692073e+00
0.05975       	4.692710e+00
0.06          	4.693380e+00
0.06025       	4.694067e+00
0.0605        	4.694780e+00
0.06075       	4.695487e+00
0.061         	4.696207e+00
0.06125       	4.696934e+00
0.0615        	4.697659e+00
0.06175       	4.698406e+00
0.062         	4.699101e+00
0.06225       	4.699789e+00
0.0625        	4.700543e+00
0.06275       	4.701329e+00
0.063         	4.702112e+00
0.06325       	4.702863e+00
0.0635        	4.703594e+00
0.06375       	4.704281e+00
0.064         	4.704940e+00
0.06425       	4.705635e+00
0.0645        	4.706354e+00
0.06475       	4.707062e+00
0.065         	4.707815e+00
0.06525       	4.708657e+00
0.0655        	4.709545e+00
0.06575       	4.710390e+00
0.066         	4.711155e+00
0.06625       	4.711837e+00
0.0665        	4.712437e+00
0.06675       	4.713037e+00
0.067         	4.713728e+00
0.06725       	4.714525e+00
0.0675        	4.715392e+00
0.06775       	4.716328e+00
0.068         	4.717287e+00
0.06825       	4.718187e+00
0.0685        	4.718987e+00
0.06875       	4.719696e+00
0.069         	4.720327e+00
0.06925       	4.720941e+00
0.0695        	4.721598e+00
0.06975       	4.722340e+00
0.07          	4.723165e+00
0.07025       	4.724041e+00
0.0705        	4.724954e+00
0.07075       	4.725853e+00
0.071         	4.726681e+00
0.07125       	4.727394e+00
0.0715        	4.727964e+00
0.07175       	4.728426e+00
0.072         	4.728874e+00
0.07225       	4.729406e+00
0.0725        	4.730112e+00
0.07275       	4.730958e+00
0.073         	4.731904e+00
0.07325       	4.732910e+00
0.0735        	4.733864e+00
0.07375       	4.734702e+00
0.074         	4.735386e+00
0.07425       	4.735942e+00
0.0745        	4.736412e+00
0.07475       	4.736891e+00
0.075         	4.737508e+00
0.07525       	4.738324e+00
0.0755        	4.739260e+00
0.07575       	4.740230e+00
0.076         	4.741148e+00
0.07625       	4.741941e+00
0.0765        	4.742591e+00
0.07675       	4.743093e+00
0.077         	4.743528e+00
0.07725       	4.743980e+00
0.0775        	4.744491e+00
0.07775       	4.745143e+00
0.078         	4.745950e+00
0.07825       	4.746879e+00
0.0785        	4.747858e+00
0.07875       	4.748809e+00
0.079         	4.749653e+00
0.07925       	4.750349e+00
0.0795        	4.750904e+00
0.07975       	4.751364e+00
0.08          	4.751778e+00
0.08025       	4.752203e+00
0.0805        	4.752715e+00
0.08075       	4.753354e+00
0.081         	4.754116e+00
0.08125       	4.754941e+00
0.0815        	4.755764e+00
0.08175       	4.756523e+00
0.082         	4.757144e+00
0.08225       	4.757660e+00
0.0825        	4.758104e+00
0.08275       	4.758500e+00
0.083         	4.758923e+00
0.08325       	4.759379e+00
0.0835        	4.759909e+00
0.08375       	4.760491e+00
0.084         	4.761112e+00
0.08425       	4.761760e+00
0.0845        	4.762370e+00
0.08475       	4.762902e+00
0.085         	4.763381e+00
0.08525       	4.763761e+00
0.0855        	4.764101e+00
0.08575       	4.764439e+00
0.086         	4.764802e+00
0.08625       	4.765197e+00
0.0865        	4.765628e+00
0.08675       	4.766121e+00
0.087         	4.766630e+00
0.08725       	4.767128e+00
0.0875        	4.767620e+00
0.08775       	4.768042e+00
0.088         	4.768399e+00
0.08825       	4.768757e+00
0.0885        	4.769123e+00
0.08875       	4.769491e+00
0.089         	4.769847e+00
0.08925       	4.770223e+00
0.0895        	4.770629e+00
0.08975       	4.771033e+00
0.09          	4.771455e+00
0.09025       	4.771871e+00
0.0905        	4.772219e+00
0.09075       	4.772532e+00
0.091         	4.772856e+00
0.09125       	4.773151e+00
0.0915        	4.773390e+00
0.09175       	4.773600e+00
0.092         	4.773788e+00
0.09225       	4.773933e+00
0.0925        	4.774055e+00
0.09275       	4.774195e+00
0.093         	4.774305e+00
0.09325       	4.774385e+00
0.0935        	4.774477e+00
0.09375       	4.774593e+00
0.094         	4.774656e+00
0.09425       	4.774678e+00
0.0945        	4.774720e+00
0.09475       	4.774766e+00
0.095         	4.774796e+00
0.09525       	4.774826e+00
0.0955        	4.774863e+00
0.09575       	4.774895e+00
0.096         	4.774935e+00
0.09625       	4.774962e+00
0.0965        	4.774958e+00
0.09675       	4.774915e+00
0.097         	4.774837e+00
0.09725       	4.774773e+00
0.0975        	4.774748e+00
0.09775       	4.774772e+00
0.098         	4.774831e+00
0.09825       	4.774881e+00
0.0985        	4.774930e+00
0.09875       	4.774998e+00
0.099         	4.775047e+00
0.09925       	4.775063e+00
0.0995        	4.775051e+00
0.09975       	4.775042e+00
0.1           	4.775051e+00
0.10025       	4.775114e+00
0.1005        	4.775220e+00
0.10075       	4.775312e+00
0.101         	4.775331e+00
0.10125       	4.775281e+00
0.1015        	4.775195e+00
0.10175       	4.775094e+00
0.102         	4.774955e+00
0.10225       	4.774821e+00
0.1025        	4.774768e+00
0.10275       	4.774790e+00
0.103         	4.774864e+00
0.10325       	4.774953e+00
0.1035        	4.774996e+00
0.10375       	4.774980e+00
0.104         	4.774917e+00
0.10425       	4.774861e+00
0.1045        	4.774861e+00
0.10475       	4.774839e+00
0.105         	4.774825e+00
0.10525       	4.774840e+00
0.1055        	4.774907e+00
0.10575       	4.775000e+00
0.106         	4.775082e+00
0.10625       	4.775125e+00
0.1065        	4.775101e+00
0.10675       	4.774990e+00
0.107         	4.774845e+00
0.10725       	4.774745e+00
0.1075        	4.774695e+00
0.10775       	4.774699e+00
0.108         	4.774739e+00
0.10825       	4.774838e+00
0.1085        	4.774982e+00
0.10875       	4.775121e+00
0.109         	4.775203e+00
0.10925       	4.775184e+00
0.1095        	4.775086e+00
0.10975       	4.774963e+00
0.11          	4.774838e+00
0.11025       	4.774762e+00
0.1105        	4.774729e+00
0.11075       	4.774712e+00
0.111         	4.774735e+00
0.11125       	4.774800e+00
0.1115        	4.774890e+00
0.11175       	4.774948e+00
0.112         	4.774938e+00
0.11225       	4.774880e+00
0.1125        	4.774791e+00
0.11275       	4.774689e+00
0.113         	4.774643e+00
0.11325       	4.774648e+00
0.1135        	4.774659e+00
0.11375       	4.774692e+00
0.114         	4.774768e+00
0.11425       	4.774865e+00
0.1145        	4.774936e+00
0.11475       	4.774958e+00
0.115         	4.774911e+00
0.11525       	4.774814e+00
0.1155        	4.774691e+00
0.11575       	4.774595e+00
0.116         	4.774562e+00
0.11625       	4.774558e+00
0.1165        	4.774597e+00
0.11675       	4.774688e+00
0.117         	4.774810e+00
0.11725       	4.774925e+00
0.1175        	4.774982e+00
0.11775       	4.774948e+00
0.118         	4.774850e+00
0.11825       	4.774729e+00
0.1185        	4.774620e+00
0.11875       	4.774562e+00
0.119         	4.774562e+00
0.11925       	4.774625e+00
0.1195        	4.774736e+00
0.11975       	4.774872e+00
0.12          	4.774995e+00
0.12025       	4.775029e+00
0.1205        	4.774942e+00
0.12075       	4.774768e+00
0.121         	4.774568e+00
0.12125       	4.774404e+00
0.1215        	4.774316e+00
0.12175       	4.774308e+00
0.122         	4.774398e+00
0.12225       	4.774568e+00
0.1225        	4.774767e+00
0.12275       	4.774944e+00
0.123         	4.775047e+00
0.12325       	4.775069e+00
0.1235        	4.775003e+00
0.12375       	4.774873e+00
0.124         	4.774691e+00
0.12425       	4.774522e+00
0.1245        	4.774418e+00
0.12475       	4.774457e+00
0.125         	4.774637e+00
0.12525       	4.774895e+00
0.1255        	4.775148e+00
0.12575       	4.775301e+00
0.126         	4.775332e+00
0.12625       	4.775261e+00
0.1265        	4.775135e+00
0.12675       	4.774950e+00
0.127         	4.774754e+00
0.12725       	4.774602e+00
0.1275        	4.774565e+00
0.12775       	4.774670e+00
0.128         	4.774878e+00
0.12825       	4.775125e+00
0.1285        	4.775302e+00
0.12875       	4.775357e+00
0.129         	4.775315e+00
0.12925       	4.775201e+00
0.1295        	4.775012e+00
0.12975       	4.774795e+00
0.13          	4.774605e+00
0.13025       	4.774510e+00
0.1305        	4.774545e+00
0.13075       	4.774706e+00
0.131         	4.774938e+00
0.13125       	4.775134e+00
0.1315        	4.775219e+00
0.13175       	4.775191e+00
0.132         	4.775074e+00
0.13225       	4.774890e+00
0.1325        	4.774708e+00
0.13275       	4.774551e+00
0.133         	4.774481e+00
0.13325       	4.774537e+00
0.1335        	4.774704e+00
0.13375       	4.774940e+00
0.134         	4.775139e+00
0.13425       	4.775235e+00
0.1345        	4.775229e+00
0.13475       	4.775175e+00
0.135         	4.775128e+00
0.13525       	4.775064e+00
0.1355        	4.774942e+00
0.13575       	4.774844e+00
0.136         	4.774809e+00
0.13625       	4.774846e+00
0.1365        	4.774945e+00
0.13675       	4.775044e+00
0.137         	4.775093e+00
0.13725       	4.775080e+00
0.1375        	4.775032e+00
0.13775       	4.774988e+00
0.138         	4.774924e+00
0.13825       	4.774818e+00
0.1385        	4.774748e+00
0.13875       	4.774746e+00
0.139         	4.774798e+00
0.13925       	4.774871e+00
0.1395        	4.774937e+00
0.13975       	4.774974e+00
0.14          	4.774974e+00
0.14025       	4.774943e+00
0.1405        	4.774893e+00
0.14075       	4.774829e+00
0.141         	4.774746e+00
0.14125       	4.774698e+00
0.1415        	4.774701e+00
0.14175       	4.774750e+00
0.142         	4.774815e+00
0.14225       	4.774848e+00
0.1425        	4.774853e+00
0.14275       	4.774859e+00
0.143         	4.774850e+00
0.14325       	4.774817e+00
0.1435        	4.774783e+00
0.14375       	4.774756e+00
0.144         	4.774754e+00
0.14425       	4.774779e+00
0.1445        	4.774836e+00
0.14475       	4.774890e+00
0.145         	4.774894e+00
0.14525       	4.774837e+00
0.1455        	4.774770e+00
0.14575       	4.774713e+00
0.146         	4.774654e+00
0.14625       	4.774615e+00
0.1465        	4.774627e+00
0.14675       	4.774684e+00
0.147         	4.774782e+00
0.14725       	4.774906e+00
0.1475        	4.775009e+00
0.14775       	4.775024e+00
0.148         	4.774925e+00
0.14825       	4.774770e+00
0.1485        	4.774644e+00
0.14875       	4.774583e+00
0.149         	4.774605e+00
0.14925       	4.774666e+00
0.1495        	4.774763e+00
0.14975       	4.774869e+00
0.15          	4.774956e+00
0.15025       	4.775012e+00
0.1505        	4.774974e+00
0.15075       	4.774844e+00
0.151         	4.774668e+00
0.15125       	4.774518e+00
0.1515        	4.774414e+00
0.15175       	4.774385e+00
0.152         	4.774394e+00
0.15225       	4.774487e+00
0.1525        	4.774644e+00
0.15275       	4.774816e+00
0.153         	4.774953e+00
0.15325       	4.774984e+00
0.1535        	4.774909e+00
0.15375       	4.774771e+00
0.154         	4.774613e+00
0.15425       	4.774484e+00
0.1545        	4.774408e+00
0.15475       	4.774371e+00
0.155         	4.774412e+00
0.15525       	4.774531e+00
0.1555        	4.774690e+00
0.15575       	4.774841e+00
0.156         	4.774904e+00
0.15625       	4.774863e+00
0.1565        	4.774760e+00
0.15675       	4.774615e+00
0.157         	4.774467e+00
0.15725       	4.774365e+00
0.1575        	4.774323e+00
0.15775       	4.774365e+00
0.158         	4.774484e+00
0.15825       	4.774660e+00
0.1585        	4.774843e+00
0.15875       	4.774955e+00
0.159         	4.774963e+00
0.15925       	4.774893e+00
0.1595        	4.774766e+00
0.15975       	4.774623e+00
0.16          	4.774517e+00
0.16025       	4.774484e+00
0.1605        	4.774557e+00
0.16075       	4.774720e+00
0.161         	4.774944e+00
0.16125       	4.775175e+00
0.1615        	4.775321e+00
0.16175       	4.775329e+00
0.162         	4.775227e+00
0.16225       	4.775060e+00
0.1625        	4.774877e+00
0.16275       	4.774748e+00
0.163         	4.774693e+00
0.16325       	4.774744e+00
0.1635        	4.774874e+00
0.16375       	4.775035e+00
0.164         	4.775202e+00
0.16425       	4.775289e+00
0.1645        	4.775257e+00
0.16475       	4.775129e+00
0.165         	4.774963e+00
0.16525       	4.774770e+00
0.1655        	4.774581e+00
0.16575       	4.774415e+00
0.166         	4.774372e+00
0.16625       	4.774463e+00
0.1665        	4.774636e+00
0.16675       	4.774841e+00
0.167         	4.775002e+00
0.16725       	4.775077e+00
0.1675        	4.775049e+00
0.16775       	4.774951e+00
0.168         	4.774802e+00
0.16825       	4.774632e+00
0.1685        	4.774475e+00
0.16875       	4.774412e+00
0.169         	4.774472e+00
0.16925       	4.774629e+00
0.1695        	4.774830e+00
0.16975       	4.774989e+00
0.17          	4.775069e+00
0.17025       	4.775077e+00
0.1705        	4.775020e+00
0.17075       	4.774898e+00
0.171         	4.774748e+00
0.17125       	4.774602e+00
0.1715        	4.774529e+00
0.17175       	4.774552e+00
0.172         	4.774675e+00
0.17225       	4.774869e+00
0.1725        	4.775041e+00
0.17275       	4.775134e+00
0.173         	4.775160e+00
0.17325       	4.775125e+00
0.1735        	4.775031e+00
0.17375       	4.774911e+00
0.174         	4.774797e+00
0.17425       	4.774734e+00
0.1745        	4.774752e+00
0.17475       	4.774860e+00
0.175         	4.775029e+00
0.17525       	4.775184e+00
0.1755        	4.775257e+00
0.17575       	4.775251e+00
0.176         	4.775186e+00
0.17625       	4.775091e+00
0.1765        	4.775028e+00
0.17675       	4.774993e+00
0.177         	4.774990e+00
0.17725       	4.775001e+00
0.1775        	4.775023e+00
0.17775       	4.775058e+00
0.178         	4.775049e+00
0.17825       	4.774993e+00
0.1785        	4.774931e+00
0.17875       	4.774873e+00
0.179         	4.774837e+00
0.17925       	4.774787e+00
0.1795        	4.774709e+00
0.17975       	4.774672e+00
0.18          	4.774665e+00
0.18025       	4.774659e+00
0.1805        	4.774659e+00
0.18075       	4.774627e+00
0.181         	4.774552e+00
0.18125       	4.774466e+00
0.1815        	4.774401e+00
0.18175       	4.774387e+00
0.182         	4.774392e+00
0.18225       	4.774389e+00
0.1825        	4.774437e+00
0.18275       	4.774524e+00
0.183         	4.774604e+00
0.18325       	4.774633e+00
0.1835        	4.774585e+00
0.18375       	4.774477e+00
0.184         	4.774367e+00
0.18425       	4.774284e+00
0.1845        	4.774231e+00
0.18475       	4.774206e+00
0.185         	4.774213e+00
0.18525       	4.774281e+00
0.1855        	4.774398e+00
0.18575       	4.774541e+00
0.186         	4.774653e+00
0.18625       	4.774671e+00
0.1865        	4.774604e+00
0.18675       	4.774511e+00
0.187         	4.774419e+00
0.18725       	4.774353e+00
0.1875        	4.774327e+00
0.18775       	4.774351e+00
0.188         	4.774437e+00
0.18825       	4.774578e+00
0.1885        	4.774754e+00
0.18875       	4.774903e+00
0.189         	4.774951e+00
0.18925       	4.774871e+00
0.1895        	4.774723e+00
0.18975       	4.774557e+00
0.19          	4.774403e+00
0.19025       	4.774324e+00
0.1905        	4.774332e+00
0.19075       	4.774436e+00
0.191         	4.774623e+00
0.19125       	4.774842e+00
0.1915        	4.775029e+00
0.19175       	4.775097e+00
0.192         	4.775015e+00
0.19225       	4.774836e+00
0.1925        	4.774667e+00
0.19275       	4.774556e+00
0.193         	4.774522e+00
0.19325       	4.774559e+00
0.1935        	4.774677e+00
0.19375       	4.774849e+00
0.194         	4.775035e+00
0.19425       	4.775188e+00
0.1945        	4.775233e+00
0.19475       	4.775156e+00
0.195         	4.774987e+00
0.19525       	4.774779e+00
0.1955        	4.774603e+00
0.19575       	4.774484e+00
0.196         	4.774451e+00
0.19625       	4.774565e+00
0.1965        	4.774788e+00
0.19675       	4.775055e+00
0.197         	4.775281e+00
0.19725       	4.775393e+00
0.1975        	4.775380e+00
0.19775       	4.775281e+00
0.198         	4.775118e+00
0.19825       	4.774939e+00
0.1985        	4.774767e+00
0.19875       	4.774652e+00
0.199         	4.774672e+00
0.19925       	4.774824e+00
0.1995        	4.775051e+00
0.19975       	4.775280e+00
0.2           	4.775425e+00
0.20025       	4.775465e+00
0.2005        	4.775428e+00
0.20075       	4.775308e+00
0.201         	4.775142e+00
0.20125       	4.774964e+00
0.2015        	4.774819e+00
0.20175       	4.774772e+00
0.202         	4.774838e+00
0.20225       	4.775002e+00
0.2025        	4.775193e+00
0.20275       	4.775328e+00
0.203         	4.775367e+00
0.20325       	4.775327e+00
0.2035        	4.775206e+00
0.20375       	4.775039e+00
0.204         	4.774865e+00
0.20425       	4.774724e+00
0.2045        	4.774668e+00
0.20475       	4.774717e+00
0.205         	4.774871e+00
0.20525       	4.775067e+00
0.2055        	4.775204e+00
0.20575       	4.775230e+00
0.206         	4.775172e+00
0.20625       	4.775048e+00
0.2065        	4.774897e+00
0.20675       	4.774791e+00
0.207         	4.774720e+00
0.20725       	4.774702e+00
0.2075        	4.774723e+00
0.20775       	4.774790e+00
0.208         	4.774888e+00
0.20825       	4.774938e+00
0.2085        	4.774907e+00
0.20875       	4.774837e+00
0.209         	4.774744e+00
0.20925       	4.774626e+00
0.2095        	4.774484e+00
0.20975       	4.774344e+00
0.21          	4.774281e+00
0.21025       	4.774289e+00
0.2105        	4.774349e+00
0.21075       	4.774442e+00
0.211         	4.774523e+00
0.21125       	4.774557e+00
0.2115        	4.774554e+00
0.21175       	4.774517e+00
0.212         	4.774454e+00
0.21225       	4.774369e+00
0.2125        	4.774279e+00
0.21275       	4.774247e+00
0.213         	4.774268e+00
0.21325       	4.774325e+00
0.2135        	4.774384e+00
0.21375       	4.774408e+00
0.214         	4.774408e+00
0.21425       	4.774411e+00
0.2145        	4.774387e+00
0.21475       	4.774348e+00
0.215         	4.774300e+00
0.21525       	4.774261e+00
0.2155        	4.774273e+00
0.21575       	4.774336e+00
0.216         	4.774435e+00
0.21625       	4.774526e+00
0.2165        	4.774559e+00
0.21675       	4.774538e+00
0.217         	4.774518e+00
0.21725       	4.774493e+00
0.2175        	4.774464e+00
0.21775       	4.774442e+00
0.218         	4.774436e+00
0.21825       	4.774476e+00
0.2185        	4.774566e+00
0.21875       	4.774695e+00
0.219         	4.774807e+00
0.21925       	4.774839e+00
0.2195        	4.774773e+00
0.21975       	4.774679e+00
0.22          	4.774594e+00
0.22025       	4.774549e+00
0.2205        	4.774567e+00
0.22075       	4.774638e+00
0.221         	4.774756e+00
0.22125       	4.774881e+00
0.2215        	4.774996e+00
0.22175       	4.775062e+00
0.222         	4.775021e+00
0.22225       	4.774881e+00
0.2225        	4.774735e+00
0.22275       	4.774632e+00
0.223         	4.774616e+00
0.22325       	4.774619e+00
0.2235        	4.774654e+00
0.22375       	4.774759e+00
0.224         	4.774892e+00
0.22425       	4.775013e+00
0.2245        	4.775098e+00
0.22475       	4.775100e+00
0.225         	4.774996e+00
0.22525       	4.774837e+00
0.2255        	4.774691e+00
0.22575       	4.774618e+00
0.226         	4.774599e+00
0.22625       	4.774639e+00
0.2265        	4.774777e+00
0.22675       	4.774974e+00
0.227         	4.775167e+00
0.22725       	4.775280e+00
0.2275        	4.775282e+00
0.22775       	4.775177e+00
0.228         	4.775018e+00
0.22825       	4.774835e+00
0.2285        	4.774671e+00
0.22875       	4.774568e+00
0.229         	4.774555e+00
0.22925       	4.774653e+00
0.2295        	4.774831e+00
0.22975       	4.775047e+00
0.23          	4.775213e+00
0.23025       	4.775264e+00
0.2305        	4.775207e+00
0.23075       	4.775086e+00
0.231         	4.774913e+00
0.23125       	4.774732e+00
0.2315        	4.774602e+00
0.23175       	4.774573e+00
0.232         	4.774668e+00
0.23225       	4.774863e+00
0.2325        	4.775119e+00
0.23275       	4.775346e+00
0.233         	4.775462e+00
0.23325       	4.775436e+00
0.2335        	4.775317e+00
0.23375       	4.775126e+00
0.234         	4.774907e+00
0.23425       	4.774748e+00
0.2345        	4.774691e+00
0.23475       	4.774787e+00
0.235         	4.775005e+00
0.23525       	4.775284e+00
0.2355        	4.775529e+00
0.23575       	4.775651e+00
0.236         	4.775612e+00
0.23625       	4.775476e+00
0.2365        	4.775317e+00
0.23675       	4.775175e+00
0.237         	4.775043e+00
0.23725       	4.774965e+00
0.2375        	4.774986e+00
0.23775       	4.775108e+00
0.238         	4.775295e+00
0.23825       	4.775476e+00
0.2385        	4.775576e+00
0.23875       	4.775562e+00
0.239         	4.775460e+00
0.23925       	4.775291e+00
0.2395        	4.775122e+00
0.23975       	4.774930e+00
0.24          	4.774791e+00
0.24025       	4.774765e+00
0.2405        	4.774845e+00
0.24075       	4.775002e+00
0.241         	4.775145e+00
0.24125       	4.775214e+00
0.2415        	4.775199e+00
0.24175       	4.775114e+00
0.242         	4.774969e+00
0.24225       	4.774795e+00
0.2425        	4.774588e+00
0.24275       	4.774406e+00
0.243         	4.774313e+00
0.24325       	4.774314e+00
0.2435        	4.774404e+00
0.24375       	4.774527e+00
0.244         	4.774603e+00
0.24425       	4.774622e+00
0.2445        	4.774601e+00
0.24475       	4.774524e+00
0.245         	4.774418e+00
0.24525       	4.774285e+00
0.2455        	4.774165e+00
0.24575       	4.774097e+00
0.246         	4.774093e+00
0.24625       	4.774157e+00
0.2465        	4.774249e+00
0.24675       	4.774324e+00
0.247         	4.774361e+00
0.24725       	4.774367e+00
0.2475        	4.774333e+00
0.24775       	4.774273e+00
0.248         	4.774217e+00
0.24825       	4.774178e+00
0.2485        	4.774183e+00
0.24875       	4.774236e+00
0.249         	4.774335e+00
0.24925       	4.774424e+00
0.2495        	4.774460e+00
0.24975       	4.774441e+00
0.25          	4.774403e+00
0.25025       	4.774354e+00
0.2505        	4.774346e+00
0.25075       	4.774389e+00
0.251         	4.774449e+00
0.25125       	4.774524e+00
0.2515        	4.774590e+00
0.25175       	4.774652e+00
0.252         	4.774676e+00
0.25225       	4.774632e+00
0.2525        	4.774541e+00
0.25275       	4.774477e+00
0.253         	4.774432e+00
0.25325       	4.774420e+00
0.2535        	4.774407e+00
0.25375       	4.774436e+00
0.254         	4.774528e+00
0.25425       	4.774651e+00
0.2545        	4.774774e+00
0.25475       	4.774839e+00
0.255         	4.774824e+00
0.25525       	4.774742e+00
0.2555        	4.774653e+00
0.25575       	4.774573e+00
0.256         	4.774531e+00
0.25625       	4.774504e+00
0.2565        	4.774527e+00
0.25675       	4.774624e+00
0.257         	4.774762e+00
0.25725       	4.774917e+00
0.2575        	4.775013e+00
0.25775       	4.775006e+00
0.258         	4.774927e+00
0.25825       	4.774828e+00
0.2585        	4.774727e+00
0.25875       	4.774668e+00
0.259         	4.774640e+00
0.25925       	4.774670e+00
0.2595        	4.774767e+00
0.25975       	4.774911e+00
0.26          	4.775071e+00
0.26025       	4.775179e+00
0.2605        	4.775177e+00
0.26075       	4.775082e+00
0.261         	4.774946e+00
0.26125       	4.774800e+00
0.2615        	4.774704e+00
0.26175       	4.774676e+00
0.262         	4.774723e+00
0.26225       	4.774852e+00
0.2625        	4.775040e+00
0.26275       	4.775245e+00
0.263         	4.775382e+00
0.26325       	4.775395e+00
0.2635        	4.775286e+00
0.26375       	4.775125e+00
0.264         	4.774964e+00
0.26425       	4.774878e+00
0.2645        	4.774876e+00
0.26475       	4.774956e+00
0.265         	4.775084e+00
0.26525       	4.775232e+00
0.2655        	4.775376e+00
0.26575       	4.775438e+00
0.266         	4.775373e+00
0.26625       	4.775199e+00
0.2665        	4.774991e+00