# Field minima and maxima
# Time        	field         	min           	location(min) 	processor     	max           	location(max) 	processor     
0.00025       	rho           	1.400005e+00	(3.038464e-01 8.274635e-02 1.439047e-19)	1	1.947725e+00	(3.038464e-01 8.185904e-02 2.729981e-19)	1
0.00025       	p             	9.999997e-01	(3.038464e-01 8.274635e-02 1.439047e-19)	1	1.583574e+00	(3.038464e-01 8.185904e-02 2.729981e-19)	1
0.0005        	rho           	1.400004e+00	(3.038464e-01 8.274635e-02 1.439047e-19)	1	2.478420e+00	(3.038464e-01 8.185904e-02 2.729981e-19)	1
0.0005        	p             	9.999992e-01	(3.038464e-01 8.274635e-02 1.439047e-19)	1	2.239178e+00	(3.038464e-01 8.185904e-02 2.729981e-19)	1
0.00075       	rho           	1.400005e+00	(2.085967e-01 5.770281e-02 -3.549623e-19)	0	2.992627e+00	(3.038464e-01 8.185904e-02 2.729981e-19)	1
0.00075       	p             	9.999995e-01	(2.085967e-01 5.770281e-02 -3.549623e-19)	0	2.955664e+00	(3.038464e-01 8.185904e-02 2.729981e-19)	1
0.001         	rho           	1.400005e+00	(8.096188e-02 2.414441e-02 4.897729e-20)	7	3.455319e+00	(3.038464e-01 8.185904e-02 2.729981e-19)	1
0.001         	p             	9.999997e-01	(8.096188e-02 2.414441e-02 4.897729e-20)	7	3.676990e+00	(3.038464e-01 8.185904e-02 2.729981e-19)	1
0.00125       	rho           	1.399980e+00	(4.761964e-03 4.109540e-03 -5.989027e-20)	14	3.854403e+00	(3.038464e-01 8.185904e-02 2.729981e-19)	1
0.00125       	p             	9.999706e-01	(4.761964e-03 4.109540e-03 -5.989027e-20)	14	4.368872e+00	(3.038464e-01 8.185904e-02 2.729981e-19)	1
0.0015        	rho           	1.399760e+00	(4.761964e-03 4.109540e-03 -5.989027e-20)	14	4.187906e+00	(3.038464e-01 8.185904e-02 2.729981e-19)	1
0.0015        	p             	9.997766e-01	(4.761964e-03 4.109540e-03 -5.989027e-20)	14	5.004377e+00	(3.038464e-01 8.185904e-02 2.729981e-19)	1
0.00175       	rho           	1.400005e+00	(9.519674e-04 3.107796e-03 3.624891e-20)	14	4.459364e+00	(3.038464e-01 8.185904e-02 2.729981e-19)	1
0.00175       	p             	9.999779e-01	(2.856966e-03 3.608668e-03 -5.880987e-20)	14	5.561049e+00	(3.038464e-01 8.185904e-02 2.729981e-19)	1
0.002         	rho           	1.399919e+00	(4.761964e-03 4.109540e-03 -5.989027e-20)	14	4.671530e+00	(3.038464e-01 8.185904e-02 2.729981e-19)	1
0.002         	p             	9.999418e-01	(2.856966e-03 3.608668e-03 -5.880987e-20)	14	6.017275e+00	(3.038464e-01 8.185904e-02 2.729981e-19)	1
0.00225       	rho           	1.399455e+00	(4.761964e-03 4.109540e-03 -5.989027e-20)	14	4.825627e+00	(3.038464e-01 8.185904e-02 2.729981e-19)	1
0.00225       	p             	9.994686e-01	(4.761964e-03 4.109540e-03 -5.989027e-20)	14	6.356481e+00	(3.038464e-01 8.185904e-02 2.729981e-19)	1
0.0025        	rho           	1.399264e+00	(4.761964e-03 4.109540e-03 -5.989027e-20)	14	4.919092e+00	(3.038464e-01 8.185904e-02 2.729981e-19)	1
0.0025        	p             	9.992648e-01	(4.761964e-03 4.109540e-03 -5.989027e-20)	14	6.565466e+00	(3.038464e-01 8.185904e-02 2.729981e-19)	1
0.00275       	rho           	1.399210e+00	(4.761964e-03 4.109540e-03 -5.989027e-20)	14	4.955216e+00	(3.000364e-01 8.084454e-02 -3.912856e-20)	1
0.00275       	p             	9.992165e-01	(4.761964e-03 4.109540e-03 -5.989027e-20)	14	6.649076e+00	(3.000364e-01 8.084454e-02 -3.912856e-20)	1
0.003         	rho           	1.399198e+00	(4.761964e-03 4.109540e-03 -5.989027e-20)	14	4.951281e+00	(2.790815e-01 7.526478e-02 -3.297872e-19)	1
0.003         	p             	9.992093e-01	(4.761964e-03 4.109540e-03 -5.989027e-20)	14	6.644896e+00	(2.809864e-01 7.577203e-02 1.558156e-19)	1
0.00325       	rho           	1.399198e+00	(4.761964e-03 4.109540e-03 -5.989027e-20)	14	4.948658e+00	(2.562215e-01 6.917776e-02 2.145648e-19)	1
0.00325       	p             	9.992113e-01	(4.761964e-03 4.109540e-03 -5.989027e-20)	14	6.641022e+00	(2.562215e-01 6.917776e-02 2.145648e-19)	1
0.0035        	rho           	1.399199e+00	(4.761964e-03 4.109540e-03 -5.989027e-20)	14	4.946436e+00	(2.314566e-01 6.258349e-02 -3.375885e-20)	0
0.0035        	p             	9.992136e-01	(4.761964e-03 4.109540e-03 -5.989027e-20)	14	6.637815e+00	(2.333616e-01 6.309075e-02 -2.787831e-19)	0
0.00375       	rho           	1.399254e+00	(4.761964e-03 4.109540e-03 -5.989027e-20)	14	4.944497e+00	(2.066917e-01 5.598922e-02 2.723907e-19)	0
0.00375       	p             	9.992785e-01	(4.761964e-03 4.109540e-03 -5.989027e-20)	14	6.635015e+00	(2.085967e-01 5.649647e-02 -1.222822e-20)	0
0.004         	rho           	1.399275e+00	(4.761964e-03 4.109540e-03 -5.989027e-20)	14	4.942794e+00	(1.819267e-01 4.939495e-02 9.378016e-21)	6
0.004         	p             	9.993015e-01	(4.761964e-03 4.109540e-03 -5.989027e-20)	14	6.632515e+00	(1.838317e-01 4.990220e-02 3.258771e-20)	6
0.00425       	rho           	1.399221e+00	(4.761964e-03 4.109540e-03 -5.989027e-20)	14	4.941286e+00	(1.571618e-01 4.280067e-02 -1.839940e-20)	6
0.00425       	p             	9.992392e-01	(4.761964e-03 4.109540e-03 -5.989027e-20)	14	6.630366e+00	(1.609718e-01 4.381518e-02 -3.106159e-20)	6
0.0045        	rho           	1.399203e+00	(4.761964e-03 4.109540e-03 -5.989027e-20)	14	4.939974e+00	(1.343018e-01 3.671365e-02 1.572654e-19)	6
0.0045        	p             	9.992196e-01	(4.761964e-03 4.109540e-03 -5.989027e-20)	14	6.628447e+00	(1.362068e-01 3.722090e-02 -1.483384e-20)	6
0.00475       	rho           	1.399198e+00	(4.761964e-03 4.109540e-03 -5.989027e-20)	14	4.938790e+00	(1.095368e-01 3.011937e-02 2.745019e-20)	7
0.00475       	p             	9.992139e-01	(4.761964e-03 4.109540e-03 -5.989027e-20)	14	6.626710e+00	(1.114418e-01 3.062662e-02 -1.367064e-20)	7
0.005         	rho           	1.399197e+00	(4.761964e-03 4.109540e-03 -5.989027e-20)	14	4.937716e+00	(8.477188e-02 2.352509e-02 9.895862e-20)	7
0.005         	p             	9.992127e-01	(4.761964e-03 4.109540e-03 -5.989027e-20)	14	6.625153e+00	(8.858187e-02 2.453959e-02 -2.698598e-20)	7
0.00525       	rho           	1.399198e+00	(4.761964e-03 4.109540e-03 -5.989027e-20)	14	4.936746e+00	(6.000691e-02 1.693081e-02 -1.303129e-19)	15
0.00525       	p             	9.992130e-01	(4.761964e-03 4.109540e-03 -5.989027e-20)	14	6.623779e+00	(6.381690e-02 1.794531e-02 -9.570948e-20)	15
0.0055        	rho           	1.399198e+00	(4.761964e-03 4.109540e-03 -5.989027e-20)	14	4.936643e+00	(4.095693e-02 1.185829e-02 3.232751e-20)	15
0.0055        	p             	9.992136e-01	(4.761964e-03 4.109540e-03 -5.989027e-20)	14	6.624274e+00	(4.095693e-02 1.185829e-02 3.232751e-20)	15
0.00575       	rho           	1.399199e+00	(4.761964e-03 4.109540e-03 -5.989027e-20)	14	4.924389e+00	(3.905193e-02 1.135103e-02 3.918513e-20)	15
0.00575       	p             	9.992139e-01	(4.761964e-03 4.109540e-03 -5.989027e-20)	14	6.604078e+00	(3.905193e-02 1.135103e-02 3.918513e-20)	15
0.006         	rho           	1.399198e+00	(4.761964e-03 4.109540e-03 -5.989027e-20)	14	4.894229e+00	(3.905193e-02 1.135103e-02 3.918513e-20)	15
0.006         	p             	9.992137e-01	(4.761964e-03 4.109540e-03 -5.989027e-20)	14	6.547800e+00	(3.905193e-02 1.135103e-02 3.918513e-20)	15
0.00625       	rho           	1.399198e+00	(4.761964e-03 4.109540e-03 -5.989027e-20)	14	4.909842e+00	(2.190695e-02 6.785762e-03 -3.493624e-20)	14
0.00625       	p             	9.992132e-01	(4.761964e-03 4.109540e-03 -5.989027e-20)	14	6.511646e+00	(2.190695e-02 6.785762e-03 -3.493624e-20)	14
0.0065        	rho           	1.399197e+00	(4.761964e-03 4.109540e-03 -5.989027e-20)	14	4.957274e+00	(2.190695e-02 6.785762e-03 -3.493624e-20)	14
0.0065        	p             	9.992127e-01	(4.761964e-03 4.109540e-03 -5.989027e-20)	14	6.615273e+00	(2.190695e-02 6.785762e-03 -3.493624e-20)	14
0.00675       	rho           	1.399197e+00	(4.761964e-03 4.109540e-03 -5.989027e-20)	14	4.991902e+00	(2.190695e-02 6.785762e-03 -3.493624e-20)	14
0.00675       	p             	9.992124e-01	(4.761964e-03 4.109540e-03 -5.989027e-20)	14	6.690694e+00	(2.190695e-02 6.785762e-03 -3.493624e-20)	14
0.007         	rho           	1.399197e+00	(4.761964e-03 4.109540e-03 -5.989027e-20)	14	5.016520e+00	(2.190695e-02 6.785762e-03 -3.493624e-20)	14
0.007         	p             	9.992124e-01	(4.761964e-03 4.109540e-03 -5.989027e-20)	14	6.740868e+00	(2.190695e-02 6.785762e-03 -3.493624e-20)	14
0.00725       	rho           	1.399197e+00	(4.761964e-03 4.109540e-03 -5.989027e-20)	14	5.031099e+00	(2.190695e-02 6.785762e-03 -3.493624e-20)	14
0.00725       	p             	9.992127e-01	(4.761964e-03 4.109540e-03 -5.989027e-20)	14	6.772880e+00	(2.381195e-02 7.293014e-03 -3.845440e-20)	15
0.0075        	rho           	1.399198e+00	(4.761964e-03 4.109540e-03 -5.989027e-20)	14	5.046346e+00	(2.381195e-02 7.293014e-03 -3.845440e-20)	15
0.0075        	p             	9.992130e-01	(4.761964e-03 4.109540e-03 -5.989027e-20)	14	6.812430e+00	(2.381195e-02 7.293014e-03 -3.845440e-20)	15
0.00775       	rho           	1.399198e+00	(4.761964e-03 4.109540e-03 -5.989027e-20)	14	5.058039e+00	(2.381195e-02 7.293014e-03 -3.845440e-20)	15
0.00775       	p             	9.992131e-01	(4.761964e-03 4.109540e-03 -5.989027e-20)	14	6.836868e+00	(2.381195e-02 7.293014e-03 -3.845440e-20)	15
0.008         	rho           	1.399197e+00	(4.761964e-03 4.109540e-03 -5.989027e-20)	14	5.064823e+00	(2.381195e-02 7.293014e-03 -3.845440e-20)	15
0.008         	p             	9.992129e-01	(4.761964e-03 4.109540e-03 -5.989027e-20)	14	6.846237e+00	(2.381195e-02 7.293014e-03 -3.845440e-20)	15
0.00825       	rho           	1.399197e+00	(4.761964e-03 4.109540e-03 -5.989027e-20)	14	5.066687e+00	(2.381195e-02 7.293014e-03 -3.845440e-20)	15
0.00825       	p             	9.992125e-01	(4.761964e-03 4.109540e-03 -5.989027e-20)	14	6.843122e+00	(2.381195e-02 7.293014e-03 -3.845440e-20)	15
0.0085        	rho           	1.399196e+00	(4.761964e-03 4.109540e-03 -5.989027e-20)	14	5.063790e+00	(2.381195e-02 7.293014e-03 -3.845440e-20)	15
0.0085        	p             	9.992122e-01	(4.761964e-03 4.109540e-03 -5.989027e-20)	14	6.830951e+00	(2.381195e-02 7.293014e-03 -3.845440e-20)	15
0.00875       	rho           	1.399197e+00	(4.761964e-03 4.109540e-03 -5.989027e-20)	14	5.057786e+00	(2.381195e-02 7.293014e-03 -3.845440e-20)	15
0.00875       	p             	9.992123e-01	(4.761964e-03 4.109540e-03 -5.989027e-20)	14	6.813631e+00	(2.381195e-02 7.293014e-03 -3.845440e-20)	15
0.009         	rho           	1.399198e+00	(4.761964e-03 4.109540e-03 -5.989027e-20)	14	5.052929e+00	(2.381195e-02 7.293014e-03 -3.845440e-20)	15
0.009         	p             	9.992130e-01	(4.761964e-03 4.109540e-03 -5.989027e-20)	14	6.800521e+00	(2.381195e-02 7.293014e-03 -3.845440e-20)	15
0.00925       	rho           	1.399199e+00	(4.761964e-03 4.109540e-03 -5.989027e-20)	14	5.051895e+00	(2.381195e-02 7.293014e-03 -3.845440e-20)	15
0.00925       	p             	9.992144e-01	(4.761964e-03 4.109540e-03 -5.989027e-20)	14	6.798178e+00	(2.381195e-02 7.293014e-03 -3.845440e-20)	15
0.0095        	rho           	1.399459e+00	(1.619195e-02 8.965539e-03 2.614703e-19)	14	5.056732e+00	(2.381195e-02 7.293014e-03 -3.845440e-20)	15
0.0095        	p             	9.993900e-01	(1.619195e-02 8.965539e-03 2.614703e-19)	14	6.811128e+00	(2.381195e-02 7.293014e-03 -3.845440e-20)	15
0.00975       	rho           	1.399453e+00	(1.619195e-02 8.965539e-03 2.614703e-19)	14	5.068837e+00	(2.381195e-02 7.293014e-03 -3.845440e-20)	15
0.00975       	p             	9.993827e-01	(1.619195e-02 8.965539e-03 2.614703e-19)	14	6.838194e+00	(2.381195e-02 7.293014e-03 -3.845440e-20)	15
0.01          	rho           	1.399452e+00	(1.619195e-02 8.965539e-03 2.614703e-19)	14	5.084134e+00	(2.381195e-02 7.293014e-03 -3.845440e-20)	15
0.01          	p             	9.993824e-01	(1.619195e-02 8.965539e-03 2.614703e-19)	14	6.870387e+00	(2.381195e-02 7.293014e-03 -3.845440e-20)	15
0.01025       	rho           	1.399458e+00	(1.619195e-02 8.965539e-03 2.614703e-19)	14	5.096821e+00	(2.381195e-02 7.293014e-03 -3.845440e-20)	15
0.01025       	p             	9.993893e-01	(1.619195e-02 8.965539e-03 2.614703e-19)	14	6.896481e+00	(2.381195e-02 7.293014e-03 -3.845440e-20)	15
0.0105        	rho           	1.399467e+00	(1.619195e-02 8.965539e-03 2.614703e-19)	14	5.099913e+00	(2.381195e-02 7.293014e-03 -3.845440e-20)	15
0.0105        	p             	9.994002e-01	(1.619195e-02 8.965539e-03 2.614703e-19)	14	6.903045e+00	(2.381195e-02 7.293014e-03 -3.845440e-20)	15
0.01075       	rho           	1.399237e+00	(4.761964e-03 4.109540e-03 -5.989027e-20)	14	5.094503e+00	(2.571694e-02 7.800266e-03 3.061882e-19)	15
0.01075       	p             	9.992391e-01	(4.761964e-03 4.109540e-03 -5.989027e-20)	14	6.895496e+00	(2.571694e-02 7.800266e-03 3.061882e-19)	15
0.011         	rho           	1.399180e+00	(4.761964e-03 4.109540e-03 -5.989027e-20)	14	5.088556e+00	(2.571694e-02 7.800266e-03 3.061882e-19)	15
0.011         	p             	9.991882e-01	(4.761964e-03 4.109540e-03 -5.989027e-20)	14	6.885256e+00	(2.571694e-02 7.800266e-03 3.061882e-19)	15
0.01125       	rho           	1.399175e+00	(4.761964e-03 4.109540e-03 -5.989027e-20)	14	5.076380e+00	(2.571694e-02 7.800266e-03 3.061882e-19)	15
0.01125       	p             	9.991876e-01	(4.761964e-03 4.109540e-03 -5.989027e-20)	14	6.862594e+00	(2.571694e-02 7.800266e-03 3.061882e-19)	15
0.0115        	rho           	1.399182e+00	(4.761964e-03 4.109540e-03 -5.989027e-20)	14	5.058237e+00	(2.571694e-02 7.800266e-03 3.061882e-19)	15
0.0115        	p             	9.991963e-01	(4.761964e-03 4.109540e-03 -5.989027e-20)	14	6.828203e+00	(2.571694e-02 7.800266e-03 3.061882e-19)	15
0.01175       	rho           	1.399192e+00	(4.761964e-03 4.109540e-03 -5.989027e-20)	14	5.035025e+00	(2.571694e-02 7.800266e-03 3.061882e-19)	15
0.01175       	p             	9.992058e-01	(4.761964e-03 4.109540e-03 -5.989027e-20)	14	6.784276e+00	(2.571694e-02 7.800266e-03 3.061882e-19)	15
0.012         	rho           	1.399250e+00	(4.761964e-03 4.109540e-03 -5.989027e-20)	14	5.028176e+00	(2.190695e-02 6.785762e-03 -3.493624e-20)	14
0.012         	p             	9.992725e-01	(4.761964e-03 4.109540e-03 -5.989027e-20)	14	6.737544e+00	(2.190695e-02 6.785762e-03 -3.493624e-20)	14
0.01225       	rho           	1.399452e+00	(1.619195e-02 8.965539e-03 2.614703e-19)	14	5.062162e+00	(2.190695e-02 6.785762e-03 -3.493624e-20)	14
0.01225       	p             	9.993820e-01	(1.619195e-02 8.965539e-03 2.614703e-19)	14	6.809778e+00	(2.190695e-02 6.785762e-03 -3.493624e-20)	14
0.0125        	rho           	1.399452e+00	(1.619195e-02 8.965539e-03 2.614703e-19)	14	5.088092e+00	(2.381195e-02 7.293014e-03 -3.845440e-20)	15
0.0125        	p             	9.993816e-01	(1.619195e-02 8.965539e-03 2.614703e-19)	14	6.873476e+00	(2.381195e-02 7.293014e-03 -3.845440e-20)	15
0.01275       	rho           	1.399458e+00	(1.619195e-02 8.965539e-03 2.614703e-19)	14	5.102383e+00	(2.381195e-02 7.293014e-03 -3.845440e-20)	15
0.01275       	p             	9.993891e-01	(1.619195e-02 8.965539e-03 2.614703e-19)	14	6.906302e+00	(2.381195e-02 7.293014e-03 -3.845440e-20)	15
0.013         	rho           	1.399468e+00	(1.619195e-02 8.965539e-03 2.614703e-19)	14	5.102634e+00	(2.381195e-02 7.293014e-03 -3.845440e-20)	15
0.013         	p             	9.994012e-01	(1.619195e-02 8.965539e-03 2.614703e-19)	14	6.909587e+00	(2.381195e-02 7.293014e-03 -3.845440e-20)	15
0.01325       	rho           	1.399478e+00	(1.619195e-02 8.965539e-03 2.614703e-19)	14	5.096534e+00	(2.571694e-02 7.800266e-03 3.061882e-19)	15
0.01325       	p             	9.994131e-01	(1.619195e-02 8.965539e-03 2.614703e-19)	14	6.900239e+00	(2.571694e-02 7.800266e-03 3.061882e-19)	15
0.0135        	rho           	1.399395e+00	(4.761964e-03 4.109540e-03 -5.989027e-20)	14	5.088254e+00	(2.571694e-02 7.800266e-03 3.061882e-19)	15
0.0135        	p             	9.994209e-01	(1.619195e-02 8.965539e-03 2.614703e-19)	14	6.885117e+00	(2.571694e-02 7.800266e-03 3.061882e-19)	15
0.01375       	rho           	1.399107e+00	(4.761964e-03 4.109540e-03 -5.989027e-20)	14	5.074957e+00	(2.571694e-02 7.800266e-03 3.061882e-19)	15
0.01375       	p             	9.991261e-01	(4.761964e-03 4.109540e-03 -5.989027e-20)	14	6.860229e+00	(2.571694e-02 7.800266e-03 3.061882e-19)	15
0.014         	rho           	1.399089e+00	(4.761964e-03 4.109540e-03 -5.989027e-20)	14	5.053812e+00	(2.571694e-02 7.800266e-03 3.061882e-19)	15
0.014         	p             	9.991049e-01	(4.761964e-03 4.109540e-03 -5.989027e-20)	14	6.820617e+00	(2.571694e-02 7.800266e-03 3.061882e-19)	15
0.01425       	rho           	1.399123e+00	(4.761964e-03 4.109540e-03 -5.989027e-20)	14	5.024906e+00	(2.571694e-02 7.800266e-03 3.061882e-19)	15
0.01425       	p             	9.991387e-01	(4.761964e-03 4.109540e-03 -5.989027e-20)	14	6.767234e+00	(2.571694e-02 7.800266e-03 3.061882e-19)	15
0.0145        	rho           	1.399160e+00	(4.761964e-03 4.109540e-03 -5.989027e-20)	14	5.049467e+00	(2.190695e-02 6.785762e-03 -3.493624e-20)	14
0.0145        	p             	9.991738e-01	(4.761964e-03 4.109540e-03 -5.989027e-20)	14	6.781844e+00	(2.190695e-02 6.785762e-03 -3.493624e-20)	14
0.01475       	rho           	1.399202e+00	(4.761964e-03 4.109540e-03 -5.989027e-20)	14	5.071043e+00	(2.190695e-02 6.785762e-03 -3.493624e-20)	14
0.01475       	p             	9.992165e-01	(4.761964e-03 4.109540e-03 -5.989027e-20)	14	6.829536e+00	(2.190695e-02 6.785762e-03 -3.493624e-20)	14
0.015         	rho           	1.399448e+00	(1.619195e-02 8.965539e-03 2.614703e-19)	14	5.094410e+00	(2.381195e-02 7.293014e-03 -3.845440e-20)	15
0.015         	p             	9.993770e-01	(1.619195e-02 8.965539e-03 2.614703e-19)	14	6.887955e+00	(2.381195e-02 7.293014e-03 -3.845440e-20)	15
0.01525       	rho           	1.399456e+00	(1.619195e-02 8.965539e-03 2.614703e-19)	14	5.103265e+00	(2.381195e-02 7.293014e-03 -3.845440e-20)	15
0.01525       	p             	9.993869e-01	(1.619195e-02 8.965539e-03 2.614703e-19)	14	6.909788e+00	(2.381195e-02 7.293014e-03 -3.845440e-20)	15
0.0155        	rho           	1.399468e+00	(1.619195e-02 8.965539e-03 2.614703e-19)	14	5.103286e+00	(2.381195e-02 7.293014e-03 -3.845440e-20)	15
0.0155        	p             	9.994018e-01	(1.619195e-02 8.965539e-03 2.614703e-19)	14	6.911754e+00	(2.381195e-02 7.293014e-03 -3.845440e-20)	15
0.01575       	rho           	1.399480e+00	(1.619195e-02 8.965539e-03 2.614703e-19)	14	5.095558e+00	(2.571694e-02 7.800266e-03 3.061882e-19)	15
0.01575       	p             	9.994155e-01	(1.619195e-02 8.965539e-03 2.614703e-19)	14	6.899937e+00	(2.571694e-02 7.800266e-03 3.061882e-19)	15
0.016         	rho           	1.399487e+00	(1.619195e-02 8.965539e-03 2.614703e-19)	14	5.088047e+00	(2.571694e-02 7.800266e-03 3.061882e-19)	15
0.016         	p             	9.994174e-01	(4.857692e-02 2.434108e-02 -9.097727e-20)	15	6.885936e+00	(2.571694e-02 7.800266e-03 3.061882e-19)	15
0.01625       	rho           	1.399489e+00	(1.619195e-02 8.965539e-03 2.614703e-19)	14	5.074652e+00	(2.571694e-02 7.800266e-03 3.061882e-19)	15
0.01625       	p             	9.994122e-01	(4.857692e-02 2.434108e-02 -9.097727e-20)	15	6.860167e+00	(2.571694e-02 7.800266e-03 3.061882e-19)	15
0.0165        	rho           	1.399165e+00	(4.761964e-03 4.109540e-03 -5.989027e-20)	14	5.051363e+00	(2.571694e-02 7.800266e-03 3.061882e-19)	15
0.0165        	p             	9.991881e-01	(4.761964e-03 4.109540e-03 -5.989027e-20)	14	6.816331e+00	(2.571694e-02 7.800266e-03 3.061882e-19)	15
0.01675       	rho           	1.399081e+00	(4.761964e-03 4.109540e-03 -5.989027e-20)	14	5.020242e+00	(2.762194e-02 8.307519e-03 -4.850757e-20)	15
0.01675       	p             	9.990971e-01	(4.761964e-03 4.109540e-03 -5.989027e-20)	14	6.755784e+00	(2.762194e-02 8.307519e-03 -4.850757e-20)	15
0.017         	rho           	1.399110e+00	(4.761964e-03 4.109540e-03 -5.989027e-20)	14	5.061480e+00	(2.190695e-02 6.785762e-03 -3.493624e-20)	14
0.017         	p             	9.991240e-01	(4.761964e-03 4.109540e-03 -5.989027e-20)	14	6.805359e+00	(2.190695e-02 6.785762e-03 -3.493624e-20)	14
0.01725       	rho           	1.399154e+00	(4.761964e-03 4.109540e-03 -5.989027e-20)	14	5.075329e+00	(2.190695e-02 6.785762e-03 -3.493624e-20)	14
0.01725       	p             	9.991660e-01	(4.761964e-03 4.109540e-03 -5.989027e-20)	14	6.837332e+00	(2.190695e-02 6.785762e-03 -3.493624e-20)	14
0.0175        	rho           	1.399449e+00	(1.619195e-02 8.965539e-03 2.614703e-19)	14	5.096422e+00	(2.381195e-02 7.293014e-03 -3.845440e-20)	15
0.0175        	p             	9.993773e-01	(1.619195e-02 8.965539e-03 2.614703e-19)	14	6.892516e+00	(2.381195e-02 7.293014e-03 -3.845440e-20)	15
0.01775       	rho           	1.399458e+00	(1.619195e-02 8.965539e-03 2.614703e-19)	14	5.103151e+00	(2.381195e-02 7.293014e-03 -3.845440e-20)	15
0.01775       	p             	9.993885e-01	(1.619195e-02 8.965539e-03 2.614703e-19)	14	6.909756e+00	(2.381195e-02 7.293014e-03 -3.845440e-20)	15
0.018         	rho           	1.399471e+00	(1.619195e-02 8.965539e-03 2.614703e-19)	14	5.102923e+00	(2.381195e-02 7.293014e-03 -3.845440e-20)	15
0.018         	p             	9.994042e-01	(1.619195e-02 8.965539e-03 2.614703e-19)	14	6.910965e+00	(2.381195e-02 7.293014e-03 -3.845440e-20)	15
0.01825       	rho           	1.399482e+00	(1.619195e-02 8.965539e-03 2.614703e-19)	14	5.093163e+00	(2.571694e-02 7.800266e-03 3.061882e-19)	15
0.01825       	p             	9.994180e-01	(1.619195e-02 8.965539e-03 2.614703e-19)	14	6.896014e+00	(2.571694e-02 7.800266e-03 3.061882e-19)	15
0.0185        	rho           	1.399489e+00	(1.619195e-02 8.965539e-03 2.614703e-19)	14	5.086284e+00	(2.571694e-02 7.800266e-03 3.061882e-19)	15
0.0185        	p             	9.994264e-01	(1.619195e-02 8.965539e-03 2.614703e-19)	14	6.883458e+00	(2.571694e-02 7.800266e-03 3.061882e-19)	15
0.01875       	rho           	1.399490e+00	(1.619195e-02 8.965539e-03 2.614703e-19)	14	5.072869e+00	(2.571694e-02 7.800266e-03 3.061882e-19)	15
0.01875       	p             	9.994275e-01	(1.619195e-02 8.965539e-03 2.614703e-19)	14	6.858141e+00	(2.571694e-02 7.800266e-03 3.061882e-19)	15
0.019         	rho           	1.399258e+00	(4.761964e-03 4.109540e-03 -5.989027e-20)	14	5.048027e+00	(2.571694e-02 7.800266e-03 3.061882e-19)	15
0.019         	p             	9.992886e-01	(4.761964e-03 4.109540e-03 -5.989027e-20)	14	6.812516e+00	(2.571694e-02 7.800266e-03 3.061882e-19)	15
0.01925       	rho           	1.399087e+00	(4.761964e-03 4.109540e-03 -5.989027e-20)	14	5.019156e+00	(2.190695e-02 6.785762e-03 -3.493624e-20)	14
0.01925       	p             	9.991037e-01	(4.761964e-03 4.109540e-03 -5.989027e-20)	14	6.745293e+00	(2.571694e-02 7.800266e-03 3.061882e-19)	15
0.0195        	rho           	1.399097e+00	(4.761964e-03 4.109540e-03 -5.989027e-20)	14	5.067632e+00	(2.190695e-02 6.785762e-03 -3.493624e-20)	14
0.0195        	p             	9.991121e-01	(4.761964e-03 4.109540e-03 -5.989027e-20)	14	6.816716e+00	(2.190695e-02 6.785762e-03 -3.493624e-20)	14
0.01975       	rho           	1.399140e+00	(4.761964e-03 4.109540e-03 -5.989027e-20)	14	5.076406e+00	(2.190695e-02 6.785762e-03 -3.493624e-20)	14
0.01975       	p             	9.991530e-01	(4.761964e-03 4.109540e-03 -5.989027e-20)	14	6.835442e+00	(2.190695e-02 6.785762e-03 -3.493624e-20)	14
0.02          	rho           	1.399247e+00	(4.761964e-03 4.109540e-03 -5.989027e-20)	14	5.089810e+00	(2.381195e-02 7.293014e-03 -3.845440e-20)	15
0.02          	p             	9.992714e-01	(4.761964e-03 4.109540e-03 -5.989027e-20)	14	6.882054e+00	(2.381195e-02 7.293014e-03 -3.845440e-20)	15
0.02025       	rho           	1.399461e+00	(1.619195e-02 8.965539e-03 2.614703e-19)	14	5.096896e+00	(2.381195e-02 7.293014e-03 -3.845440e-20)	15
0.02025       	p             	9.993910e-01	(1.619195e-02 8.965539e-03 2.614703e-19)	14	6.898715e+00	(2.381195e-02 7.293014e-03 -3.845440e-20)	15
0.0205        	rho           	1.399475e+00	(1.619195e-02 8.965539e-03 2.614703e-19)	14	5.095729e+00	(2.381195e-02 7.293014e-03 -3.845440e-20)	15
0.0205        	p             	9.994081e-01	(1.619195e-02 8.965539e-03 2.614703e-19)	14	6.895528e+00	(2.381195e-02 7.293014e-03 -3.845440e-20)	15
0.02075       	rho           	1.399487e+00	(1.619195e-02 8.965539e-03 2.614703e-19)	14	5.085627e+00	(2.571694e-02 7.800266e-03 3.061882e-19)	15
0.02075       	p             	9.994225e-01	(1.619195e-02 8.965539e-03 2.614703e-19)	14	6.880476e+00	(2.571694e-02 7.800266e-03 3.061882e-19)	15
0.021         	rho           	1.399494e+00	(1.619195e-02 8.965539e-03 2.614703e-19)	14	5.077988e+00	(2.571694e-02 7.800266e-03 3.061882e-19)	15
0.021         	p             	9.994319e-01	(1.619195e-02 8.965539e-03 2.614703e-19)	14	6.866599e+00	(2.571694e-02 7.800266e-03 3.061882e-19)	15
0.02125       	rho           	1.399496e+00	(1.619195e-02 8.965539e-03 2.614703e-19)	14	5.066647e+00	(2.571694e-02 7.800266e-03 3.061882e-19)	15
0.02125       	p             	9.994341e-01	(1.619195e-02 8.965539e-03 2.614703e-19)	14	6.845075e+00	(2.571694e-02 7.800266e-03 3.061882e-19)	15
0.0215        	rho           	1.399343e+00	(4.761964e-03 4.109540e-03 -5.989027e-20)	14	5.046559e+00	(2.571694e-02 7.800266e-03 3.061882e-19)	15
0.0215        	p             	9.993800e-01	(4.761964e-03 4.109540e-03 -5.989027e-20)	14	6.808879e+00	(2.571694e-02 7.800266e-03 3.061882e-19)	15
0.02175       	rho           	1.399097e+00	(4.761964e-03 4.109540e-03 -5.989027e-20)	14	5.016967e+00	(2.571694e-02 7.800266e-03 3.061882e-19)	15
0.02175       	p             	9.991151e-01	(4.761964e-03 4.109540e-03 -5.989027e-20)	14	6.753541e+00	(2.571694e-02 7.800266e-03 3.061882e-19)	15
0.022         	rho           	1.399091e+00	(4.761964e-03 4.109540e-03 -5.989027e-20)	14	5.064049e+00	(2.190695e-02 6.785762e-03 -3.493624e-20)	14
0.022         	p             	9.991064e-01	(4.761964e-03 4.109540e-03 -5.989027e-20)	14	6.814979e+00	(2.190695e-02 6.785762e-03 -3.493624e-20)	14
0.02225       	rho           	1.399132e+00	(4.761964e-03 4.109540e-03 -5.989027e-20)	14	5.075092e+00	(2.190695e-02 6.785762e-03 -3.493624e-20)	14
0.02225       	p             	9.991452e-01	(4.761964e-03 4.109540e-03 -5.989027e-20)	14	6.834186e+00	(2.190695e-02 6.785762e-03 -3.493624e-20)	14
0.0225        	rho           	1.399174e+00	(4.761964e-03 4.109540e-03 -5.989027e-20)	14	5.089785e+00	(2.381195e-02 7.293014e-03 -3.845440e-20)	15
0.0225        	p             	9.991853e-01	(4.761964e-03 4.109540e-03 -5.989027e-20)	14	6.884534e+00	(2.381195e-02 7.293014e-03 -3.845440e-20)	15
0.02275       	rho           	1.399458e+00	(1.619195e-02 8.965539e-03 2.614703e-19)	14	5.097065e+00	(2.381195e-02 7.293014e-03 -3.845440e-20)	15
0.02275       	p             	9.993881e-01	(1.619195e-02 8.965539e-03 2.614703e-19)	14	6.898983e+00	(2.381195e-02 7.293014e-03 -3.845440e-20)	15
0.023         	rho           	1.399473e+00	(1.619195e-02 8.965539e-03 2.614703e-19)	14	5.097980e+00	(2.381195e-02 7.293014e-03 -3.845440e-20)	15
0.023         	p             	9.994057e-01	(1.619195e-02 8.965539e-03 2.614703e-19)	14	6.896786e+00	(2.381195e-02 7.293014e-03 -3.845440e-20)	15
0.02325       	rho           	1.399485e+00	(1.619195e-02 8.965539e-03 2.614703e-19)	14	5.087450e+00	(2.571694e-02 7.800266e-03 3.061882e-19)	15
0.02325       	p             	9.994207e-01	(1.619195e-02 8.965539e-03 2.614703e-19)	14	6.882129e+00	(2.571694e-02 7.800266e-03 3.061882e-19)	15
0.0235        	rho           	1.399493e+00	(1.619195e-02 8.965539e-03 2.614703e-19)	14	5.082501e+00	(2.571694e-02 7.800266e-03 3.061882e-19)	15
0.0235        	p             	9.994300e-01	(1.619195e-02 8.965539e-03 2.614703e-19)	14	6.872476e+00	(2.571694e-02 7.800266e-03 3.061882e-19)	15
0.02375       	rho           	1.399494e+00	(1.619195e-02 8.965539e-03 2.614703e-19)	14	5.071842e+00	(2.571694e-02 7.800266e-03 3.061882e-19)	15
0.02375       	p             	9.994321e-01	(1.619195e-02 8.965539e-03 2.614703e-19)	14	6.850928e+00	(2.571694e-02 7.800266e-03 3.061882e-19)	15
0.024         	rho           	1.399487e+00	(1.619195e-02 8.965539e-03 2.614703e-19)	14	5.050392e+00	(2.571694e-02 7.800266e-03 3.061882e-19)	15
0.024         	p             	9.994240e-01	(1.619195e-02 8.965539e-03 2.614703e-19)	14	6.811795e+00	(2.571694e-02 7.800266e-03 3.061882e-19)	15
0.02425       	rho           	1.399126e+00	(4.761964e-03 4.109540e-03 -5.989027e-20)	14	5.020762e+00	(2.762194e-02 8.307519e-03 -4.850757e-20)	15
0.02425       	p             	9.991449e-01	(4.761964e-03 4.109540e-03 -5.989027e-20)	14	6.755451e+00	(2.762194e-02 8.307519e-03 -4.850757e-20)	15
0.0245        	rho           	1.399087e+00	(4.761964e-03 4.109540e-03 -5.989027e-20)	14	5.064161e+00	(2.190695e-02 6.785762e-03 -3.493624e-20)	14
0.0245        	p             	9.991015e-01	(4.761964e-03 4.109540e-03 -5.989027e-20)	14	6.818480e+00	(2.190695e-02 6.785762e-03 -3.493624e-20)	14
0.02475       	rho           	1.399122e+00	(4.761964e-03 4.109540e-03 -5.989027e-20)	14	5.076557e+00	(2.190695e-02 6.785762e-03 -3.493624e-20)	14
0.02475       	p             	9.991355e-01	(4.761964e-03 4.109540e-03 -5.989027e-20)	14	6.839918e+00	(2.190695e-02 6.785762e-03 -3.493624e-20)	14
0.025         	rho           	1.399165e+00	(4.761964e-03 4.109540e-03 -5.989027e-20)	14	5.092493e+00	(2.381195e-02 7.293014e-03 -3.845440e-20)	15
0.025         	p             	9.991765e-01	(4.761964e-03 4.109540e-03 -5.989027e-20)	14	6.891151e+00	(2.381195e-02 7.293014e-03 -3.845440e-20)	15
0.02525       	rho           	1.399456e+00	(1.619195e-02 8.965539e-03 2.614703e-19)	14	5.099699e+00	(2.381195e-02 7.293014e-03 -3.845440e-20)	15
0.02525       	p             	9.993858e-01	(1.619195e-02 8.965539e-03 2.614703e-19)	14	6.904786e+00	(2.381195e-02 7.293014e-03 -3.845440e-20)	15
0.0255        	rho           	1.399471e+00	(1.619195e-02 8.965539e-03 2.614703e-19)	14	5.101169e+00	(2.381195e-02 7.293014e-03 -3.845440e-20)	15
0.0255        	p             	9.994031e-01	(1.619195e-02 8.965539e-03 2.614703e-19)	14	6.902941e+00	(2.381195e-02 7.293014e-03 -3.845440e-20)	15
0.02575       	rho           	1.399483e+00	(1.619195e-02 8.965539e-03 2.614703e-19)	14	5.088631e+00	(2.381195e-02 7.293014e-03 -3.845440e-20)	15