# Region type : patch obstacle
# Faces       : 80
# Area        : 3.155522e-03
# Scale factor: 1.000000e+00
# Time        	areaAverage(p)
0.00025       	1.180386e+00
0.0005        	1.369842e+00
0.00075       	1.568498e+00
0.001         	1.776326e+00
0.00125       	1.992934e+00
0.0015        	2.216581e+00
0.00175       	2.445085e+00
0.002         	2.676314e+00
0.00225       	2.908232e+00
0.0025        	3.139110e+00
0.00275       	3.367537e+00
0.003         	3.592223e+00
0.00325       	3.811978e+00
0.0035        	4.025706e+00
0.00375       	4.232355e+00
0.004         	4.430946e+00
0.00425       	4.620585e+00
0.0045        	4.800446e+00
0.00475       	4.969766e+00
0.005         	5.127835e+00
0.00525       	5.273970e+00
0.0055        	5.407584e+00
0.00575       	5.528205e+00
0.006         	5.635464e+00
0.00625       	5.729088e+00
0.0065        	5.808855e+00
0.00675       	5.874592e+00
0.007         	5.926184e+00
0.00725       	5.963465e+00
0.0075        	5.986175e+00
0.00775       	5.994448e+00
0.008         	5.989131e+00
0.00825       	5.971577e+00
0.0085        	5.943456e+00
0.00875       	5.906610e+00
0.009         	5.862812e+00
0.00925       	5.813404e+00
0.0095        	5.759434e+00
0.00975       	5.701810e+00
0.01          	5.641352e+00
0.01025       	5.578795e+00
0.0105        	5.514787e+00
0.01075       	5.449902e+00
0.011         	5.384665e+00
0.01125       	5.319564e+00
0.0115        	5.255053e+00
0.01175       	5.191557e+00
0.012         	5.129480e+00
0.01225       	5.069201e+00
0.0125        	5.011083e+00
0.01275       	4.955466e+00
0.013         	4.902677e+00
0.01325       	4.853039e+00
0.0135        	4.806894e+00
0.01375       	4.764635e+00
0.014         	4.726657e+00
0.01425       	4.693148e+00
0.0145        	4.664084e+00
0.01475       	4.639267e+00
0.015         	4.618539e+00
0.01525       	4.601717e+00
0.0155        	4.588444e+00
0.01575       	4.578246e+00
0.016         	4.570596e+00
0.01625       	4.565038e+00
0.0165        	4.561218e+00
0.01675       	4.558856e+00
0.017         	4.557727e+00
0.01725       	4.557632e+00
0.0175        	4.558404e+00
0.01775       	4.559896e+00
0.018         	4.561978e+00
0.01825       	4.564542e+00
0.0185        	4.567519e+00
0.01875       	4.570819e+00
0.019         	4.574394e+00
0.01925       	4.578188e+00
0.0195        	4.582143e+00
0.01975       	4.586206e+00
0.02          	4.590341e+00
0.02025       	4.594517e+00
0.0205        	4.598700e+00
0.02075       	4.602857e+00
0.021         	4.606955e+00
0.02125       	4.610965e+00
0.0215        	4.614873e+00
0.02175       	4.618664e+00
0.022         	4.622325e+00
0.02225       	4.625814e+00
0.0225        	4.629117e+00
0.02275       	4.632240e+00
0.023         	4.635189e+00
0.02325       	4.637950e+00
0.0235        	4.640504e+00
0.02375       	4.642854e+00
0.024         	4.645011e+00
0.02425       	4.646991e+00
0.0245        	4.648783e+00
0.02475       	4.650361e+00
0.025         	4.651717e+00
0.02525       	4.652881e+00
0.0255        	4.653887e+00
0.02575       	4.654767e+00
0.026         	4.655550e+00
0.02625       	4.656258e+00
0.0265        	4.656902e+00
0.02675       	4.657492e+00
0.027         	4.658038e+00
0.02725       	4.658561e+00
0.0275        	4.659083e+00
0.02775       	4.659614e+00
0.028         	4.660155e+00
0.02825       	4.660704e+00
0.0285        	4.661264e+00
0.02875       	4.661828e+00
0.029         	4.662397e+00
0.02925       	4.662975e+00
0.0295        	4.663559e+00
0.02975       	4.664134e+00
0.03          	4.664685e+00
0.03025       	4.665207e+00
0.0305        	4.665700e+00
0.03075       	4.666161e+00
0.031         	4.666578e+00
0.03125       	4.666951e+00
0.0315        	4.667276e+00
0.03175       	4.667561e+00
0.032         	4.667813e+00
0.03225       	4.668033e+00
0.0325        	4.668237e+00
0.03275       	4.668441e+00
0.033         	4.668661e+00
0.03325       	4.668893e+00
0.0335        	4.669116e+00
0.03375       	4.669316e+00
0.034         	4.669494e+00
0.03425       	4.669649e+00
0.0345        	4.669764e+00
0.03475       	4.669839e+00
0.035         	4.669853e+00
0.03525       	4.669806e+00
0.0355        	4.669708e+00
0.03575       	4.669564e+00
0.036         	4.669391e+00
0.03625       	4.669195e+00
0.0365        	4.668991e+00
0.03675       	4.668784e+00
0.037         	4.668581e+00
0.03725       	4.668382e+00
0.0375        	4.668180e+00
0.03775       	4.667985e+00
0.038         	4.667818e+00
0.03825       	4.667696e+00
0.0385        	4.667593e+00
0.03875       	4.667486e+00
0.039         	4.667395e+00
0.03925       	4.667329e+00
0.0395        	4.667283e+00
0.03975       	4.667251e+00
0.04          	4.667224e+00
0.04025       	4.667192e+00
0.0405        	4.667129e+00
0.04075       	4.667029e+00
0.041         	4.666898e+00
0.04125       	4.666734e+00
0.0415        	4.666549e+00
0.04175       	4.666368e+00
0.042         	4.666215e+00
0.04225       	4.666085e+00
0.0425        	4.665968e+00
0.04275       	4.665877e+00
0.043         	4.665835e+00
0.04325       	4.665841e+00
0.0435        	4.665874e+00
0.04375       	4.665914e+00
0.044         	4.665965e+00
0.04425       	4.666033e+00
0.0445        	4.666112e+00
0.04475       	4.666187e+00
0.045         	4.666243e+00
0.04525       	4.666278e+00
0.0455        	4.666291e+00
0.04575       	4.666274e+00
0.046         	4.666220e+00
0.04625       	4.666123e+00
0.0465        	4.665990e+00
0.04675       	4.665845e+00
0.047         	4.665706e+00
0.04725       	4.665578e+00
0.0475        	4.665463e+00
0.04775       	4.665382e+00
0.048         	4.665370e+00
0.04825       	4.665432e+00
0.0485        	4.665530e+00
0.04875       	4.665642e+00
0.049         	4.665749e+00
0.04925       	4.665837e+00
0.0495        	4.665901e+00
0.04975       	4.665927e+00
0.05          	4.665902e+00
0.05025       	4.665820e+00
0.0505        	4.665697e+00
0.05075       	4.665547e+00
0.051         	4.665387e+00
0.05125       	4.665228e+00
0.0515        	4.665083e+00
0.05175       	4.664970e+00
0.052         	4.664921e+00
0.05225       	4.664958e+00
0.0525        	4.665081e+00
0.05275       	4.665290e+00
0.053         	4.665607e+00
0.05325       	4.666046e+00
0.0535        	4.666584e+00
0.05375       	4.667189e+00
0.054         	4.667847e+00
0.05425       	4.668558e+00
0.0545        	4.669319e+00
0.05475       	4.670109e+00
0.055         	4.670885e+00
0.05525       	4.671621e+00
0.0555        	4.672302e+00
0.05575       	4.672906e+00
0.056         	4.673436e+00
0.05625       	4.673909e+00
0.0565        	4.674341e+00
0.05675       	4.674755e+00
0.057         	4.675176e+00
0.05725       	4.675621e+00
0.0575        	4.676089e+00
0.05775       	4.676582e+00
0.058         	4.677122e+00
0.05825       	4.677738e+00
0.0585        	4.678425e+00
0.05875       	4.679156e+00
0.059         	4.679945e+00
0.05925       	4.680797e+00
0.0595        	4.681706e+00
0.05975       	4.682641e+00
0.06          	4.683582e+00
0.06025       	4.684517e+00
0.0605        	4.685431e+00
0.06075       	4.686310e+00
0.061         	4.687145e+00
0.06125       	4.687919e+00
0.0615        	4.688618e+00
0.06175       	4.689256e+00
0.062         	4.689864e+00
0.06225       	4.690452e+00
0.0625        	4.691018e+00
0.06275       	4.691591e+00
0.063         	4.692206e+00
0.06325       	4.692877e+00
0.0635        	4.693579e+00
0.06375       	4.694296e+00
0.064         	4.695053e+00
0.06425       	4.695837e+00
0.0645        	4.696648e+00
0.06475       	4.697472e+00
0.065         	4.698294e+00
0.06525       	4.699110e+00
0.0655        	4.699926e+00
0.06575       	4.700738e+00
0.066         	4.701530e+00
0.06625       	4.702303e+00
0.0665        	4.703056e+00
0.06675       	4.703796e+00
0.067         	4.704537e+00
0.06725       	4.705285e+00
0.0675        	4.706019e+00
0.06775       	4.706718e+00
0.068         	4.707412e+00
0.06825       	4.708132e+00
0.0685        	4.708858e+00
0.06875       	4.709589e+00
0.069         	4.710324e+00
0.06925       	4.711082e+00
0.0695        	4.711864e+00
0.06975       	4.712655e+00
0.07          	4.713435e+00
0.07025       	4.714197e+00
0.0705        	4.714947e+00
0.07075       	4.715697e+00
0.071         	4.716449e+00
0.07125       	4.717206e+00
0.0715        	4.717972e+00
0.07175       	4.718754e+00
0.072         	4.719549e+00
0.07225       	4.720359e+00
0.0725        	4.721162e+00
0.07275       	4.721934e+00
0.073         	4.722677e+00
0.07325       	4.723444e+00
0.0735        	4.724246e+00
0.07375       	4.725067e+00
0.074         	4.725874e+00
0.07425       	4.726655e+00
0.0745        	4.727407e+00
0.07475       	4.728129e+00
0.075         	4.728817e+00
0.07525       	4.729480e+00
0.0755        	4.730136e+00
0.07575       	4.730799e+00
0.076         	4.731465e+00
0.07625       	4.732133e+00
0.0765        	4.732796e+00
0.07675       	4.733454e+00
0.077         	4.734131e+00
0.07725       	4.734841e+00
0.0775        	4.735587e+00
0.07775       	4.736343e+00
0.078         	4.737100e+00
0.07825       	4.737841e+00
0.0785        	4.738563e+00
0.07875       	4.739273e+00
0.079         	4.739978e+00
0.07925       	4.740680e+00
0.0795        	4.741359e+00
0.07975       	4.742001e+00
0.08          	4.742596e+00
0.08025       	4.743139e+00
0.0805        	4.743649e+00
0.08075       	4.744131e+00
0.081         	4.744615e+00
0.08125       	4.745112e+00
0.0815        	4.745624e+00
0.08175       	4.746160e+00
0.082         	4.746717e+00
0.08225       	4.747300e+00
0.0825        	4.747910e+00
0.08275       	4.748560e+00
0.083         	4.749253e+00
0.08325       	4.749982e+00
0.0835        	4.750723e+00
0.08375       	4.751471e+00
0.084         	4.752212e+00
0.08425       	4.752926e+00
0.0845        	4.753594e+00
0.08475       	4.754197e+00
0.085         	4.754738e+00
0.08525       	4.755213e+00
0.0855        	4.755637e+00
0.08575       	4.756013e+00
0.086         	4.756353e+00
0.08625       	4.756664e+00
0.0865        	4.756970e+00
0.08675       	4.757270e+00
0.087         	4.757587e+00
0.08725       	4.757936e+00
0.0875        	4.758309e+00
0.08775       	4.758707e+00
0.088         	4.759120e+00
0.08825       	4.759543e+00
0.0885        	4.759996e+00
0.08875       	4.760458e+00
0.089         	4.760898e+00
0.08925       	4.761331e+00
0.0895        	4.761764e+00
0.08975       	4.762187e+00
0.09          	4.762589e+00
0.09025       	4.762950e+00
0.0905        	4.763270e+00
0.09075       	4.763544e+00
0.091         	4.763753e+00
0.09125       	4.763911e+00
0.0915        	4.764041e+00
0.09175       	4.764157e+00
0.092         	4.764276e+00
0.09225       	4.764400e+00
0.0925        	4.764548e+00
0.09275       	4.764693e+00
0.093         	4.764839e+00
0.09325       	4.765013e+00
0.0935        	4.765215e+00
0.09375       	4.765416e+00
0.094         	4.765588e+00
0.09425       	4.765734e+00
0.0945        	4.765859e+00
0.09475       	4.765963e+00
0.095         	4.766050e+00
0.09525       	4.766127e+00
0.0955        	4.766183e+00
0.09575       	4.766226e+00
0.096         	4.766261e+00
0.09625       	4.766283e+00
0.0965        	4.766274e+00
0.09675       	4.766223e+00
0.097         	4.766151e+00
0.09725       	4.766079e+00
0.0975        	4.766033e+00
0.09775       	4.766016e+00
0.098         	4.766028e+00
0.09825       	4.766069e+00
0.0985        	4.766160e+00
0.09875       	4.766273e+00
0.099         	4.766377e+00
0.09925       	4.766469e+00
0.0995        	4.766542e+00
0.09975       	4.766607e+00
0.1           	4.766652e+00
0.10025       	4.766665e+00
0.1005        	4.766633e+00
0.10075       	4.766564e+00
0.101         	4.766469e+00
0.10125       	4.766360e+00
0.1015        	4.766232e+00
0.10175       	4.766083e+00
0.102         	4.765936e+00
0.10225       	4.765815e+00
0.1025        	4.765725e+00
0.10275       	4.765654e+00
0.103         	4.765592e+00
0.10325       	4.765553e+00
0.1035        	4.765576e+00
0.10375       	4.765688e+00
0.104         	4.765843e+00
0.10425       	4.766004e+00
0.1045        	4.766161e+00
0.10475       	4.766304e+00
0.105         	4.766423e+00
0.10525       	4.766509e+00
0.1055        	4.766547e+00
0.10575       	4.766550e+00
0.106         	4.766522e+00
0.10625       	4.766460e+00
0.1065        	4.766359e+00
0.10675       	4.766223e+00
0.107         	4.766059e+00
0.10725       	4.765890e+00
0.1075        	4.765728e+00
0.10775       	4.765591e+00
0.108         	4.765474e+00
0.10825       	4.765368e+00
0.1085        	4.765280e+00
0.10875       	4.765231e+00
0.109         	4.765252e+00
0.10925       	4.765357e+00
0.1095        	4.765526e+00
0.10975       	4.765734e+00
0.11          	4.765938e+00
0.11025       	4.766115e+00
0.1105        	4.766254e+00
0.11075       	4.766351e+00
0.111         	4.766411e+00
0.11125       	4.766437e+00
0.1115        	4.766417e+00
0.11175       	4.766360e+00
0.112         	4.766266e+00
0.11225       	4.766135e+00
0.1125        	4.765977e+00
0.11275       	4.765805e+00
0.113         	4.765638e+00
0.11325       	4.765480e+00
0.1135        	4.765326e+00
0.11375       	4.765187e+00
0.114         	4.765079e+00
0.11425       	4.765009e+00
0.1145        	4.764984e+00
0.11475       	4.764997e+00
0.115         	4.765051e+00
0.11525       	4.765148e+00
0.1155        	4.765266e+00
0.11575       	4.765402e+00
0.116         	4.765519e+00
0.11625       	4.765612e+00
0.1165        	4.765679e+00
0.11675       	4.765717e+00
0.117         	4.765726e+00
0.11725       	4.765702e+00
0.1175        	4.765652e+00
0.11775       	4.765572e+00
0.118         	4.765474e+00
0.11825       	4.765370e+00
0.1185        	4.765267e+00
0.11875       	4.765186e+00
0.119         	4.765135e+00
0.11925       	4.765105e+00
0.1195        	4.765089e+00
0.11975       	4.765097e+00
0.12          	4.765142e+00
0.12025       	4.765196e+00
0.1205        	4.765254e+00
0.12075       	4.765309e+00
0.121         	4.765365e+00
0.12125       	4.765424e+00
0.1215        	4.765474e+00
0.12175       	4.765523e+00
0.122         	4.765558e+00
0.12225       	4.765576e+00
0.1225        	4.765594e+00
0.12275       	4.765610e+00
0.123         	4.765626e+00
0.12325       	4.765637e+00
0.1235        	4.765662e+00
0.12375       	4.765707e+00
0.124         	4.765760e+00
0.12425       	4.765800e+00
0.1245        	4.765811e+00
0.12475       	4.765816e+00
0.125         	4.765821e+00
0.12525       	4.765833e+00
0.1255        	4.765849e+00
0.12575       	4.765863e+00
0.126         	4.765882e+00
0.12625       	4.765893e+00
0.1265        	4.765883e+00
0.12675       	4.765842e+00
0.127         	4.765764e+00
0.12725       	4.765667e+00
0.1275        	4.765592e+00
0.12775       	4.765569e+00
0.128         	4.765571e+00
0.12825       	4.765579e+00
0.1285        	4.765611e+00
0.12875       	4.765679e+00
0.129         	4.765769e+00
0.12925       	4.765851e+00
0.1295        	4.765916e+00
0.12975       	4.765966e+00
0.13          	4.766002e+00
0.13025       	4.766018e+00
0.1305        	4.766002e+00
0.13075       	4.765965e+00
0.131         	4.765910e+00
0.13125       	4.765848e+00
0.1315        	4.765779e+00
0.13175       	4.765696e+00
0.132         	4.765597e+00
0.13225       	4.765489e+00
0.1325        	4.765394e+00
0.13275       	4.765320e+00
0.133         	4.765257e+00
0.13325       	4.765212e+00
0.1335        	4.765200e+00
0.13375       	4.765246e+00
0.134         	4.765346e+00
0.13425       	4.765475e+00
0.1345        	4.765607e+00
0.13475       	4.765730e+00
0.135         	4.765839e+00
0.13525       	4.765936e+00
0.1355        	4.766009e+00
0.13575       	4.766051e+00
0.136         	4.766058e+00
0.13625       	4.766031e+00
0.1365        	4.765966e+00
0.13675       	4.765878e+00
0.137         	4.765761e+00
0.13725       	4.765623e+00
0.1375        	4.765482e+00
0.13775       	4.765362e+00
0.138         	4.765274e+00
0.13825       	4.765201e+00
0.1385        	4.765133e+00
0.13875       	4.765084e+00
0.139         	4.765080e+00
0.13925       	4.765154e+00
0.1395        	4.765302e+00
0.13975       	4.765489e+00
0.14          	4.765687e+00
0.14025       	4.765866e+00
0.1405        	4.766017e+00
0.14075       	4.766130e+00
0.141         	4.766203e+00
0.14125       	4.766250e+00
0.1415        	4.766265e+00
0.14175       	4.766250e+00
0.142         	4.766199e+00
0.14225       	4.766104e+00
0.1425        	4.765960e+00
0.14275       	4.765786e+00
0.143         	4.765606e+00
0.14325       	4.765432e+00
0.1435        	4.765262e+00
0.14375       	4.765100e+00
0.144         	4.764953e+00
0.14425       	4.764829e+00
0.1445        	4.764755e+00
0.14475       	4.764734e+00
0.145         	4.764768e+00
0.14525       	4.764855e+00
0.1455        	4.764975e+00
0.14575       	4.765109e+00
0.146         	4.765238e+00
0.14625       	4.765352e+00
0.1465        	4.765444e+00
0.14675       	4.765510e+00
0.147         	4.765551e+00
0.14725       	4.765559e+00
0.1475        	4.765529e+00
0.14775       	4.765462e+00
0.148         	4.765368e+00
0.14825       	4.765263e+00
0.1485        	4.765154e+00
0.14875       	4.765048e+00
0.149         	4.764962e+00
0.14925       	4.764892e+00
0.1495        	4.764846e+00
0.14975       	4.764821e+00
0.15          	4.764827e+00
0.15025       	4.764856e+00
0.1505        	4.764914e+00
0.15075       	4.764992e+00
0.151         	4.765079e+00
0.15125       	4.765178e+00
0.1515        	4.765273e+00
0.15175       	4.765361e+00
0.152         	4.765441e+00
0.15225       	4.765503e+00
0.1525        	4.765549e+00
0.15275       	4.765584e+00
0.153         	4.765621e+00
0.15325       	4.765648e+00
0.1535        	4.765668e+00
0.15375       	4.765678e+00
0.154         	4.765692e+00
0.15425       	4.765719e+00
0.1545        	4.765734e+00
0.15475       	4.765728e+00
0.155         	4.765723e+00
0.15525       	4.765733e+00
0.1555        	4.765756e+00
0.15575       	4.765777e+00
0.156         	4.765788e+00
0.15625       	4.765785e+00
0.1565        	4.765760e+00
0.15675       	4.765711e+00
0.157         	4.765621e+00
0.15725       	4.765529e+00
0.1575        	4.765449e+00
0.15775       	4.765398e+00
0.158         	4.765394e+00
0.15825       	4.765413e+00
0.1585        	4.765443e+00
0.15875       	4.765486e+00
0.159         	4.765565e+00
0.15925       	4.765675e+00
0.1595        	4.765779e+00
0.15975       	4.765867e+00
0.16          	4.765935e+00
0.16025       	4.765988e+00
0.1605        	4.766018e+00
0.16075       	4.766027e+00
0.161         	4.766026e+00
0.16125       	4.766014e+00
0.1615        	4.765994e+00
0.16175       	4.765960e+00
0.162         	4.765906e+00
0.16225       	4.765826e+00
0.1625        	4.765717e+00
0.16275       	4.765588e+00
0.163         	4.765452e+00
0.16325       	4.765339e+00
0.1635        	4.765253e+00
0.16375       	4.765200e+00
0.164         	4.765210e+00
0.16425       	4.765276e+00
0.1645        	4.765377e+00
0.16475       	4.765487e+00
0.165         	4.765592e+00
0.16525       	4.765695e+00
0.1655        	4.765799e+00
0.16575       	4.765898e+00
0.166         	4.765966e+00
0.16625       	4.765996e+00
0.1665        	4.765988e+00
0.16675       	4.765938e+00
0.167         	4.765865e+00
0.16725       	4.765767e+00
0.1675        	4.765648e+00
0.16775       	4.765526e+00
0.168         	4.765424e+00
0.16825       	4.765349e+00
0.1685        	4.765273e+00
0.16875       	4.765196e+00
0.169         	4.765123e+00
0.16925       	4.765103e+00
0.1695        	4.765162e+00
0.16975       	4.765279e+00
0.17          	4.765427e+00
0.17025       	4.765578e+00
0.1705        	4.765727e+00
0.17075       	4.765861e+00
0.171         	4.765964e+00
0.17125       	4.766043e+00
0.1715        	4.766101e+00
0.17175       	4.766139e+00
0.172         	4.766151e+00
0.17225       	4.766126e+00
0.1725        	4.766048e+00
0.17275       	4.765917e+00
0.173         	4.765762e+00
0.17325       	4.765608e+00
0.1735        	4.765460e+00
0.17375       	4.765316e+00
0.174         	4.765168e+00
0.17425       	4.765023e+00
0.1745        	4.764889e+00
0.17475       	4.764799e+00
0.175         	4.764762e+00
0.17525       	4.764782e+00
0.1755        	4.764855e+00
0.17575       	4.764956e+00
0.176         	4.765072e+00
0.17625       	4.765188e+00
0.1765        	4.765293e+00
0.17675       	4.765382e+00
0.177         	4.765449e+00
0.17725       	4.765498e+00
0.1775        	4.765514e+00
0.17775       	4.765495e+00
0.178         	4.765437e+00
0.17825       	4.765355e+00
0.1785        	4.765260e+00
0.17875       	4.765156e+00
0.179         	4.765055e+00
0.17925       	4.764960e+00
0.1795        	4.764875e+00
0.17975       	4.764805e+00
0.18          	4.764758e+00
0.18025       	4.764743e+00
0.1805        	4.764744e+00
0.18075       	4.764769e+00
0.181         	4.764821e+00
0.18125       	4.764895e+00
0.1815        	4.764981e+00
0.18175       	4.765066e+00
0.182         	4.765145e+00
0.18225       	4.765223e+00
0.1825        	4.765290e+00
0.18275       	4.765348e+00
0.183         	4.765395e+00
0.18325       	4.765444e+00
0.1835        	4.765485e+00
0.18375       	4.765524e+00
0.184         	4.765546e+00
0.18425       	4.765557e+00
0.1845        	4.765577e+00
0.18475       	4.765600e+00
0.185         	4.765610e+00
0.18525       	4.765625e+00
0.1855        	4.765656e+00
0.18575       	4.765696e+00
0.186         	4.765732e+00
0.18625       	4.765753e+00
0.1865        	4.765754e+00
0.18675       	4.765728e+00
0.187         	4.765671e+00
0.18725       	4.765579e+00
0.1875        	4.765491e+00
0.18775       	4.765411e+00
0.188         	4.765353e+00
0.18825       	4.765336e+00
0.1885        	4.765346e+00
0.18875       	4.765377e+00
0.189         	4.765421e+00
0.18925       	4.765497e+00
0.1895        	4.765612e+00
0.18975       	4.765733e+00
0.19          	4.765832e+00
0.19025       	4.765913e+00
0.1905        	4.765977e+00
0.19075       	4.766021e+00
0.191         	4.766054e+00
0.19125       	4.766078e+00
0.1915        	4.766080e+00
0.19175       	4.766070e+00
0.192         	4.766038e+00
0.19225       	4.765974e+00
0.1925        	4.765877e+00
0.19275       	4.765736e+00
0.193         	4.765569e+00
0.19325       	4.765402e+00
0.1935        	4.765274e+00
0.19375       	4.765183e+00
0.194         	4.765121e+00
0.19425       	4.765111e+00
0.1945        	4.765162e+00
0.19475       	4.765258e+00
0.195         	4.765366e+00
0.19525       	4.765476e+00
0.1955        	4.765597e+00
0.19575       	4.765722e+00
0.196         	4.765847e+00
0.19625       	4.765946e+00
0.1965        	4.766004e+00
0.19675       	4.766020e+00
0.197         	4.765998e+00
0.19725       	4.765952e+00
0.1975        	4.765881e+00
0.19775       	4.765791e+00
0.198         	4.765688e+00
0.19825       	4.765589e+00
0.1985        	4.765503e+00
0.19875       	4.765404e+00
0.199         	4.765295e+00
0.19925       	4.765184e+00
0.1995        	4.765120e+00
0.19975       	4.765133e+00
0.2           	4.765208e+00
0.20025       	4.765309e+00
0.2005        	4.765427e+00
0.20075       	4.765552e+00
0.201         	4.765676e+00
0.20125       	4.765782e+00
0.2015        	4.765870e+00
0.20175       	4.765944e+00
0.202         	4.766005e+00
0.20225       	4.766040e+00
0.2025        	4.766040e+00
0.20275       	4.765991e+00
0.203         	4.765883e+00
0.20325       	4.765746e+00
0.2035        	4.765607e+00
0.20375       	4.765478e+00
0.204         	4.765350e+00
0.20425       	4.765215e+00
0.2045        	4.765073e+00
0.20475       	4.764940e+00
0.205         	4.764845e+00
0.20525       	4.764801e+00
0.2055        	4.764812e+00
0.20575       	4.764872e+00
0.206         	4.764958e+00
0.20625       	4.765058e+00
0.2065        	4.765162e+00
0.20675       	4.765254e+00
0.207         	4.765338e+00
0.20725       	4.765404e+00
0.2075        	4.765455e+00
0.20775       	4.765481e+00
0.208         	4.765478e+00
0.20825       	4.765441e+00
0.2085        	4.765386e+00
0.20875       	4.765315e+00
0.209         	4.765235e+00
0.20925       	4.765162e+00
0.2095        	4.765098e+00
0.20975       	4.765033e+00
0.21          	4.764980e+00
0.21025       	4.764942e+00
0.2105        	4.764925e+00
0.21075       	4.764914e+00
0.211         	4.764907e+00
0.21125       	4.764914e+00
0.2115        	4.764936e+00
0.21175       	4.764976e+00
0.212         	4.765024e+00
0.21225       	4.765074e+00
0.2125        	4.765128e+00
0.21275       	4.765178e+00
0.213         	4.765226e+00
0.21325       	4.765262e+00
0.2135        	4.765296e+00
0.21375       	4.765325e+00
0.214         	4.765351e+00
0.21425       	4.765368e+00
0.2145        	4.765379e+00
0.21475       	4.765401e+00
0.215         	4.765442e+00
0.21525       	4.765472e+00
0.2155        	4.765503e+00
0.21575       	4.765545e+00
0.216         	4.765603e+00
0.21625       	4.765657e+00
0.2165        	4.765692e+00
0.21675       	4.765703e+00
0.217         	4.765675e+00
0.21725       	4.765621e+00
0.2175        	4.765535e+00
0.21775       	4.765442e+00
0.218         	4.765355e+00
0.21825       	4.765284e+00
0.2185        	4.765243e+00
0.21875       	4.765237e+00
0.219         	4.765256e+00
0.21925       	4.765286e+00
0.2195        	4.765346e+00
0.21975       	4.765458e+00
0.22          	4.765594e+00
0.22025       	4.765721e+00
0.2205        	4.765831e+00
0.22075       	4.765923e+00
0.221         	4.765996e+00
0.22125       	4.766056e+00
0.2215        	4.766101e+00
0.22175       	4.766126e+00
0.222         	4.766143e+00
0.22225       	4.766143e+00
0.2225        	4.766113e+00
0.22275       	4.766044e+00
0.223         	4.765913e+00
0.22325       	4.765742e+00
0.2235        	4.765543e+00
0.22375       	4.765364e+00
0.224         	4.765224e+00
0.22425       	4.765116e+00
0.2245        	4.765056e+00
0.22475       	4.765071e+00
0.225         	4.765142e+00
0.22525       	4.765239e+00
0.2255        	4.765347e+00
0.22575       	4.765468e+00
0.226         	4.765601e+00
0.22625       	4.765740e+00
0.2265        	4.765858e+00
0.22675       	4.765939e+00
0.227         	4.765979e+00
0.22725       	4.765981e+00
0.2275        	4.765949e+00
0.22775       	4.765895e+00
0.228         	4.765818e+00
0.22825       	4.765713e+00
0.2285        	4.765607e+00
0.22875       	4.765510e+00
0.229         	4.765406e+00
0.22925       	4.765287e+00
0.2295        	4.765158e+00
0.22975       	4.765066e+00
0.23          	4.765045e+00
0.23025       	4.765088e+00
0.2305        	4.765163e+00
0.23075       	4.765265e+00
0.231         	4.765379e+00
0.23125       	4.765503e+00
0.2315        	4.765618e+00
0.23175       	4.765718e+00
0.232         	4.765807e+00
0.23225       	4.765885e+00
0.2325        	4.765938e+00
0.23275       	4.765961e+00
0.233         	4.765935e+00
0.23325       	4.765855e+00
0.2335        	4.765747e+00
0.23375       	4.765636e+00
0.234         	4.765533e+00
0.23425       	4.765435e+00
0.2345        	4.765333e+00
0.23475       	4.765219e+00
0.235         	4.765107e+00
0.23525       	4.765019e+00
0.2355        	4.764985e+00
0.23575       	4.765002e+00
0.236         	4.765063e+00
0.23625       	4.765146e+00
0.2365        	4.765241e+00
0.23675       	4.765329e+00
0.237         	4.765408e+00
0.23725       	4.765479e+00
0.2375        	4.765534e+00
0.23775       	4.765579e+00
0.238         	4.765607e+00
0.23825       	4.765617e+00
0.2385        	4.765598e+00
0.23875       	4.765559e+00
0.239         	4.765495e+00
0.23925       	4.765416e+00
0.2395        	4.765334e+00
0.23975       	4.765259e+00
0.24          	4.765182e+00
0.24025       	4.765113e+00
0.2405        	4.765054e+00
0.24075       	4.765015e+00
0.241         	4.764986e+00
0.24125       	4.764954e+00
0.2415        	4.764935e+00
0.24175       	4.764921e+00
0.242         	4.764922e+00
0.24225       	4.764932e+00
0.2425        	4.764942e+00
0.24275       	4.764954e+00
0.243         	4.764971e+00
0.24325       	4.764989e+00
0.2435        	4.765001e+00
0.24375       	4.765015e+00
0.244         	4.765030e+00
0.24425       	4.765047e+00
0.2445        	4.765063e+00
0.24475       	4.765076e+00
0.245         	4.765108e+00
0.24525       	4.765160e+00
0.2455        	4.765207e+00
0.24575       	4.765252e+00
0.246         	4.765309e+00
0.24625       	4.765386e+00
0.2465        	4.765457e+00
0.24675       	4.765511e+00
0.247         	4.765541e+00
0.24725       	4.765527e+00
0.2475        	4.765487e+00
0.24775       	4.765410e+00
0.248         	4.765322e+00
0.24825       	4.765232e+00
0.2485        	4.765151e+00
0.24875       	4.765098e+00
0.249         	4.765083e+00
0.24925       	4.765096e+00
0.2495        	4.765130e+00
0.24975       	4.765193e+00
0.25          	4.765309e+00
0.25025       	4.765464e+00
0.2505        	4.765624e+00
0.25075       	4.765772e+00
0.251         	4.765905e+00
0.25125       	4.766024e+00
0.2515        	4.766122e+00
0.25175       	4.766200e+00
0.252         	4.766258e+00
0.25225       	4.766294e+00
0.2525        	4.766315e+00
0.25275       	4.766304e+00
0.253         	4.766244e+00
0.25325       	4.766122e+00
0.2535        	4.765940e+00
0.25375       	4.765724e+00
0.254         	4.765510e+00
0.25425       	4.765328e+00
0.2545        	4.765180e+00
0.25475       	4.765078e+00
0.255         	4.765047e+00
0.25525       	4.765083e+00
0.2555        	4.765156e+00
0.25575       	4.765245e+00
0.256         	4.765347e+00
0.25625       	4.765473e+00
0.2565        	4.765608e+00
0.25675       	4.765736e+00
0.257         	4.765839e+00
0.25725       	4.765900e+00
0.2575        	4.765925e+00
0.25775       	4.765914e+00
0.258         	4.765875e+00
0.25825       	4.765806e+00
0.2585        	4.765711e+00
0.25875       	4.765603e+00
0.259         	4.765496e+00
0.25925       	4.765388e+00
0.2595        	4.765253e+00
0.25975       	4.765111e+00
0.26          	4.764987e+00
0.26025       	4.764925e+00
0.2605        	4.764929e+00
0.26075       	4.764977e+00
0.261         	4.765045e+00
0.26125       	4.765137e+00
0.2615        	4.765243e+00
0.26175       	4.765347e+00
0.262         	4.765446e+00
0.26225       	4.765539e+00
0.2625        	4.765627e+00
0.26275       	4.765702e+00
0.263         	4.765755e+00
0.26325       	4.765768e+00
0.2635        	4.765735e+00
0.26375       	4.765671e+00
0.264         	4.765595e+00
0.26425       	4.765526e+00
0.2645        	4.765470e+00
0.26475       	4.765404e+00
0.265         	4.765323e+00
0.26525       	4.765234e+00
0.2655        	4.765159e+00
0.26575       	4.765125e+00
0.266         	4.765126e+00
0.26625       	4.765171e+00
0.2665        	4.765230e+00