# Field minima and maxima
# Time        	field         	min           	location(min) 	processor     	max           	location(max) 	processor     
0.00025       	rho           	1.400005e+00	(3.028905e-01 8.383078e-02 7.237375e-20)	4	1.669411e+00	(3.028905e-01 8.204976e-02 -1.371898e-19)	4
0.00025       	p             	9.999997e-01	(3.028905e-01 8.383078e-02 7.237375e-20)	4	1.278283e+00	(3.028905e-01 8.204976e-02 -1.371898e-19)	4
0.0005        	rho           	1.400004e+00	(3.028905e-01 8.383078e-02 7.237375e-20)	4	1.936178e+00	(3.028905e-01 8.204976e-02 -1.371898e-19)	4
0.0005        	p             	9.999989e-01	(3.028905e-01 8.383078e-02 7.237375e-20)	4	1.575438e+00	(3.028905e-01 8.204976e-02 -1.371898e-19)	4
0.00075       	rho           	1.400003e+00	(3.028905e-01 8.383078e-02 7.237375e-20)	4	2.201151e+00	(3.028905e-01 8.204976e-02 -1.371898e-19)	4
0.00075       	p             	9.999979e-01	(3.028905e-01 8.383078e-02 7.237375e-20)	4	1.892094e+00	(3.028905e-01 8.204976e-02 -1.371898e-19)	4
0.001         	rho           	1.400002e+00	(3.028905e-01 8.383078e-02 7.237375e-20)	4	2.465163e+00	(3.028905e-01 8.204976e-02 -1.371898e-19)	4
0.001         	p             	9.999968e-01	(3.028905e-01 8.383078e-02 7.237375e-20)	4	2.228447e+00	(3.028905e-01 8.204976e-02 -1.371898e-19)	4
0.00125       	rho           	1.400003e+00	(2.457413e-01 6.909194e-02 -6.505071e-20)	5	2.725946e+00	(3.028905e-01 8.204976e-02 -1.371898e-19)	4
0.00125       	p             	9.999978e-01	(2.457413e-01 6.909194e-02 -6.505071e-20)	5	2.580823e+00	(3.028905e-01 8.204976e-02 -1.371898e-19)	4
0.0015        	rho           	1.400003e+00	(1.809719e-01 5.238785e-02 -1.692672e-19)	2	2.976261e+00	(3.028905e-01 8.204976e-02 -1.371898e-19)	4
0.0015        	p             	9.999985e-01	(1.809719e-01 5.238785e-02 -1.692672e-19)	2	2.939277e+00	(3.028905e-01 8.204976e-02 -1.371898e-19)	4
0.00175       	rho           	1.400004e+00	(1.162023e-01 3.568371e-02 1.594133e-19)	3	3.213728e+00	(3.028905e-01 8.204976e-02 -1.371898e-19)	4
0.00175       	p             	9.999989e-01	(1.162023e-01 3.568371e-02 1.594133e-19)	3	3.298985e+00	(3.028905e-01 8.204976e-02 -1.371898e-19)	4
0.002         	rho           	1.400004e+00	(4.762268e-02 1.799694e-02 -9.059322e-20)	8	3.436711e+00	(3.028905e-01 8.204976e-02 -1.371898e-19)	4
0.002         	p             	9.999992e-01	(4.762268e-02 1.799694e-02 -9.059322e-20)	8	3.655694e+00	(3.028905e-01 8.204976e-02 -1.371898e-19)	4
0.00225       	rho           	1.400001e+00	(9.522837e-03 8.170950e-03 3.516145e-19)	9	3.644224e+00	(3.048000e-01 8.255503e-02 -2.612327e-21)	4
0.00225       	p             	9.999956e-01	(9.522837e-03 8.170950e-03 3.516145e-19)	9	4.005580e+00	(3.028905e-01 8.204976e-02 -1.371898e-19)	4
0.0025        	rho           	1.399861e+00	(9.522837e-03 8.170950e-03 3.516145e-19)	9	3.835868e+00	(3.028905e-01 8.204976e-02 -1.371898e-19)	4
0.0025        	p             	9.998379e-01	(9.522837e-03 8.170950e-03 3.516145e-19)	9	4.345215e+00	(3.028905e-01 8.204976e-02 -1.371898e-19)	4
0.00275       	rho           	1.399810e+00	(9.522837e-03 8.170950e-03 3.516145e-19)	9	4.011678e+00	(3.028905e-01 8.204976e-02 -1.371898e-19)	4
0.00275       	p             	9.998260e-01	(9.522837e-03 8.170950e-03 3.516145e-19)	9	4.671455e+00	(3.028905e-01 8.204976e-02 -1.371898e-19)	4
0.003         	rho           	1.400005e+00	(5.712852e-03 7.188351e-03 1.041815e-20)	9	4.171969e+00	(3.028905e-01 8.204976e-02 -1.371898e-19)	4
0.003         	p             	9.999892e-01	(5.712852e-03 7.188351e-03 1.041815e-20)	9	4.981387e+00	(3.028905e-01 8.204976e-02 -1.371898e-19)	4
0.00325       	rho           	1.399977e+00	(5.712852e-03 7.188351e-03 1.041815e-20)	9	4.317245e+00	(3.028905e-01 8.204976e-02 -1.371898e-19)	4
0.00325       	p             	9.999309e-01	(5.712852e-03 7.188351e-03 1.041815e-20)	9	5.272361e+00	(3.028905e-01 8.204976e-02 -1.371898e-19)	4
0.0035        	rho           	1.399894e+00	(5.712852e-03 7.188351e-03 1.041815e-20)	9	4.447918e+00	(3.028905e-01 8.204976e-02 -1.371898e-19)	4
0.0035        	p             	9.998294e-01	(5.712852e-03 7.188351e-03 1.041815e-20)	9	5.541740e+00	(3.028905e-01 8.204976e-02 -1.371898e-19)	4
0.00375       	rho           	1.399798e+00	(5.712852e-03 7.188351e-03 1.041815e-20)	9	4.564045e+00	(3.028905e-01 8.204976e-02 -1.371898e-19)	4
0.00375       	p             	9.997273e-01	(5.712852e-03 7.188351e-03 1.041815e-20)	9	5.786609e+00	(3.028905e-01 8.204976e-02 -1.371898e-19)	4
0.004         	rho           	1.399723e+00	(5.712852e-03 7.188351e-03 1.041815e-20)	9	4.666025e+00	(3.028905e-01 8.204976e-02 -1.371898e-19)	4
0.004         	p             	9.996522e-01	(5.712852e-03 7.188351e-03 1.041815e-20)	9	6.005090e+00	(3.028905e-01 8.204976e-02 -1.371898e-19)	4
0.00425       	rho           	1.399692e+00	(5.712852e-03 7.188351e-03 1.041815e-20)	9	4.753902e+00	(3.028905e-01 8.204976e-02 -1.371898e-19)	4
0.00425       	p             	9.996196e-01	(5.712852e-03 7.188351e-03 1.041815e-20)	9	6.195390e+00	(3.028905e-01 8.204976e-02 -1.371898e-19)	4
0.0045        	rho           	1.399727e+00	(5.712852e-03 7.188351e-03 1.041815e-20)	9	4.827444e+00	(3.028905e-01 8.204976e-02 -1.371898e-19)	4
0.0045        	p             	9.996463e-01	(5.712852e-03 7.188351e-03 1.041815e-20)	9	6.355835e+00	(3.028905e-01 8.204976e-02 -1.371898e-19)	4
0.00475       	rho           	1.399472e+00	(9.522837e-03 8.170950e-03 3.516145e-19)	9	4.886223e+00	(3.028905e-01 8.204976e-02 -1.371898e-19)	4
0.00475       	p             	9.996246e-01	(9.522837e-03 8.170950e-03 3.516145e-19)	9	6.484863e+00	(3.028905e-01 8.204976e-02 -1.371898e-19)	4
0.005         	rho           	1.399186e+00	(9.522837e-03 8.170950e-03 3.516145e-19)	9	4.929552e+00	(3.028905e-01 8.204976e-02 -1.371898e-19)	4
0.005         	p             	9.992925e-01	(9.522837e-03 8.170950e-03 3.516145e-19)	9	6.580685e+00	(3.028905e-01 8.204976e-02 -1.371898e-19)	4
0.00525       	rho           	1.398981e+00	(9.522837e-03 8.170950e-03 3.516145e-19)	9	4.956979e+00	(3.028905e-01 8.204976e-02 -1.371898e-19)	4
0.00525       	p             	9.990518e-01	(9.522837e-03 8.170950e-03 3.516145e-19)	9	6.642661e+00	(3.028905e-01 8.204976e-02 -1.371898e-19)	4
0.0055        	rho           	1.398859e+00	(9.522837e-03 8.170950e-03 3.516145e-19)	9	4.969703e+00	(2.952706e-01 8.003354e-02 -3.627490e-20)	4
0.0055        	p             	9.989193e-01	(9.522837e-03 8.170950e-03 3.516145e-19)	9	6.672508e+00	(2.990805e-01 8.104165e-02 4.499130e-19)	4
0.00575       	rho           	1.398819e+00	(9.522837e-03 8.170950e-03 3.516145e-19)	9	4.977595e+00	(2.952706e-01 8.003354e-02 -3.627490e-20)	4
0.00575       	p             	9.988839e-01	(9.522837e-03 8.170950e-03 3.516145e-19)	9	6.690584e+00	(2.952706e-01 8.003354e-02 -3.627490e-20)	4
0.006         	rho           	1.398853e+00	(9.522837e-03 8.170950e-03 3.516145e-19)	9	4.975517e+00	(2.876507e-01 7.801732e-02 1.148003e-19)	4
0.006         	p             	9.989332e-01	(9.522837e-03 8.170950e-03 3.516145e-19)	9	6.688264e+00	(2.876507e-01 7.801732e-02 1.148003e-19)	4
0.00625       	rho           	1.398949e+00	(9.522837e-03 8.170950e-03 3.516145e-19)	9	4.974036e+00	(2.724109e-01 7.398488e-02 7.445588e-20)	4
0.00625       	p             	9.990503e-01	(9.522837e-03 8.170950e-03 3.516145e-19)	9	6.684946e+00	(2.724109e-01 7.398488e-02 7.445588e-20)	4
0.0065        	rho           	1.399087e+00	(9.522837e-03 8.170950e-03 3.516145e-19)	9	4.972907e+00	(2.609811e-01 7.096055e-02 2.574313e-20)	4
0.0065        	p             	9.992137e-01	(9.522837e-03 8.170950e-03 3.516145e-19)	9	6.683244e+00	(2.609811e-01 7.096055e-02 2.574313e-20)	4
0.00675       	rho           	1.399246e+00	(9.522837e-03 8.170950e-03 3.516145e-19)	9	4.972354e+00	(2.495512e-01 6.793621e-02 3.734462e-20)	4
0.00675       	p             	9.993991e-01	(9.522837e-03 8.170950e-03 3.516145e-19)	9	6.682556e+00	(2.495512e-01 6.793621e-02 3.734462e-20)	4
0.007         	rho           	1.399405e+00	(9.522837e-03 8.170950e-03 3.516145e-19)	9	4.971765e+00	(2.343114e-01 6.390375e-02 8.873400e-21)	5
0.007         	p             	9.995823e-01	(9.522837e-03 8.170950e-03 3.516145e-19)	9	6.681770e+00	(2.381213e-01 6.491187e-02 2.711123e-19)	5
0.00725       	rho           	1.399543e+00	(9.522837e-03 8.170950e-03 3.516145e-19)	9	4.971332e+00	(2.228815e-01 6.087941e-02 -1.803750e-19)	5
0.00725       	p             	9.997468e-01	(9.522837e-03 8.170950e-03 3.516145e-19)	9	6.681020e+00	(2.266915e-01 6.188752e-02 -1.669193e-20)	5
0.0075        	rho           	1.399646e+00	(9.522837e-03 8.170950e-03 3.516145e-19)	9	4.970909e+00	(2.114516e-01 5.785506e-02 -3.234490e-19)	5
0.0075        	p             	9.998672e-01	(9.522837e-03 8.170950e-03 3.516145e-19)	9	6.680297e+00	(2.152616e-01 5.886318e-02 2.722265e-19)	5
0.00775       	rho           	1.399704e+00	(9.522837e-03 8.170950e-03 3.516145e-19)	9	4.970496e+00	(2.000217e-01 5.483071e-02 -2.554068e-20)	5
0.00775       	p             	9.999116e-01	(3.238274e-02 1.765962e-02 -2.777854e-20)	8	6.679602e+00	(2.038317e-01 5.583883e-02 3.587899e-19)	5
0.008         	rho           	1.399714e+00	(9.522837e-03 8.170950e-03 3.516145e-19)	9	4.970095e+00	(1.885918e-01 5.180636e-02 -2.955173e-20)	2
0.008         	p             	9.997182e-01	(3.238274e-02 1.765962e-02 -2.777854e-20)	8	6.678961e+00	(1.885918e-01 5.180636e-02 -2.955173e-20)	2
0.00825       	rho           	1.399605e+00	(3.238274e-02 1.765962e-02 -2.777854e-20)	8	4.969706e+00	(1.771619e-01 4.878201e-02 3.694466e-20)	2
0.00825       	p             	9.995328e-01	(3.238274e-02 1.765962e-02 -2.777854e-20)	8	6.678496e+00	(1.771619e-01 4.878201e-02 3.694466e-20)	2
0.0085        	rho           	1.399557e+00	(3.238274e-02 1.765962e-02 -2.777854e-20)	8	4.969327e+00	(1.657320e-01 4.575766e-02 1.803200e-20)	2
0.0085        	p             	9.995002e-01	(3.238274e-02 1.765962e-02 -2.777854e-20)	8	6.678033e+00	(1.657320e-01 4.575766e-02 1.803200e-20)	2
0.00875       	rho           	1.399517e+00	(9.522837e-03 8.170950e-03 3.516145e-19)	9	4.968960e+00	(1.543021e-01 4.273330e-02 2.226997e-20)	2
0.00875       	p             	9.995639e-01	(3.238274e-02 1.765962e-02 -2.777854e-20)	8	6.677574e+00	(1.543021e-01 4.273330e-02 2.226997e-20)	2
0.009         	rho           	1.399415e+00	(9.522837e-03 8.170950e-03 3.516145e-19)	9	4.968637e+00	(1.390622e-01 3.870083e-02 1.298746e-19)	2
0.009         	p             	9.995430e-01	(9.522837e-03 8.170950e-03 3.516145e-19)	9	6.677125e+00	(1.428722e-01 3.970895e-02 -1.955085e-20)	2
0.00925       	rho           	1.399318e+00	(9.522837e-03 8.170950e-03 3.516145e-19)	9	4.968366e+00	(1.276323e-01 3.567647e-02 -5.839629e-20)	3
0.00925       	p             	9.994246e-01	(9.522837e-03 8.170950e-03 3.516145e-19)	9	6.676680e+00	(1.314422e-01 3.668459e-02 -3.603178e-20)	2
0.0095        	rho           	1.399238e+00	(9.522837e-03 8.170950e-03 3.516145e-19)	9	4.968105e+00	(1.162023e-01 3.265212e-02 -1.045320e-19)	3
0.0095        	p             	9.993375e-01	(9.522837e-03 8.170950e-03 3.516145e-19)	9	6.676254e+00	(1.200123e-01 3.366024e-02 -1.437554e-19)	3
0.00975       	rho           	1.399184e+00	(9.522837e-03 8.170950e-03 3.516145e-19)	9	4.967828e+00	(1.047724e-01 2.962776e-02 -3.939195e-19)	3
0.00975       	p             	9.992851e-01	(9.522837e-03 8.170950e-03 3.516145e-19)	9	6.675794e+00	(1.085824e-01 3.063588e-02 1.749492e-19)	3
0.01          	rho           	1.399159e+00	(9.522837e-03 8.170950e-03 3.516145e-19)	9	4.967568e+00	(9.334246e-02 2.660340e-02 -3.179633e-19)	3
0.01          	p             	9.992674e-01	(9.522837e-03 8.170950e-03 3.516145e-19)	9	6.675413e+00	(9.715244e-02 2.761152e-02 1.005465e-20)	3
0.01025       	rho           	1.399165e+00	(9.522837e-03 8.170950e-03 3.516145e-19)	9	4.968155e+00	(8.191252e-02 2.357904e-02 1.961826e-19)	3
0.01025       	p             	9.992831e-01	(9.522837e-03 8.170950e-03 3.516145e-19)	9	6.676401e+00	(8.191252e-02 2.357904e-02 1.961826e-19)	3
0.0105        	rho           	1.399198e+00	(9.522837e-03 8.170950e-03 3.516145e-19)	9	4.966464e+00	(7.810253e-02 2.257092e-02 6.373378e-20)	3
0.0105        	p             	9.993278e-01	(9.522837e-03 8.170950e-03 3.516145e-19)	9	6.674740e+00	(7.810253e-02 2.257092e-02 6.373378e-20)	3
0.01075       	rho           	1.399251e+00	(9.522837e-03 8.170950e-03 3.516145e-19)	9	4.960001e+00	(7.429255e-02 2.156280e-02 -1.576179e-19)	3
0.01075       	p             	9.993940e-01	(9.522837e-03 8.170950e-03 3.516145e-19)	9	6.664017e+00	(7.429255e-02 2.156280e-02 -1.576179e-19)	3
0.011         	rho           	1.399317e+00	(9.522837e-03 8.170950e-03 3.516145e-19)	9	4.949053e+00	(7.429255e-02 2.156280e-02 -1.576179e-19)	3
0.011         	p             	9.994722e-01	(9.522837e-03 8.170950e-03 3.516145e-19)	9	6.644512e+00	(7.048257e-02 2.055468e-02 8.312764e-20)	8
0.01125       	rho           	1.399384e+00	(9.522837e-03 8.170950e-03 3.516145e-19)	9	4.932971e+00	(7.429255e-02 2.156280e-02 -1.576179e-19)	3
0.01125       	p             	9.995315e-01	(3.238274e-02 1.765962e-02 -2.777854e-20)	8	6.614285e+00	(7.429255e-02 2.156280e-02 -1.576179e-19)	3
0.0115        	rho           	1.399445e+00	(9.522837e-03 8.170950e-03 3.516145e-19)	9	4.911609e+00	(7.429255e-02 2.156280e-02 -1.576179e-19)	3
0.0115        	p             	9.995069e-01	(3.238274e-02 1.765962e-02 -2.777854e-20)	8	6.573882e+00	(7.429255e-02 2.156280e-02 -1.576179e-19)	3
0.01175       	rho           	1.399492e+00	(9.522837e-03 8.170950e-03 3.516145e-19)	9	4.889529e+00	(4.000271e-02 1.248971e-02 5.385050e-20)	8
0.01175       	p             	9.995086e-01	(3.238274e-02 1.765962e-02 -2.777854e-20)	8	6.522844e+00	(7.429255e-02 2.156280e-02 -1.576179e-19)	3
0.012         	rho           	1.399519e+00	(9.522837e-03 8.170950e-03 3.516145e-19)	9	4.918666e+00	(4.000271e-02 1.248971e-02 5.385050e-20)	8
0.012         	p             	9.995369e-01	(3.238274e-02 1.765962e-02 -2.777854e-20)	8	6.510207e+00	(4.000271e-02 1.248971e-02 5.385050e-20)	8
0.01225       	rho           	1.399525e+00	(9.522837e-03 8.170950e-03 3.516145e-19)	9	4.942181e+00	(4.000271e-02 1.248971e-02 5.385050e-20)	8
0.01225       	p             	9.995898e-01	(3.238274e-02 1.765962e-02 -2.777854e-20)	8	6.558169e+00	(4.000271e-02 1.248971e-02 5.385050e-20)	8
0.0125        	rho           	1.399510e+00	(9.522837e-03 8.170950e-03 3.516145e-19)	9	4.963251e+00	(4.381270e-02 1.349783e-02 8.446338e-20)	8
0.0125        	p             	9.996625e-01	(3.238274e-02 1.765962e-02 -2.777854e-20)	8	6.610003e+00	(4.381270e-02 1.349783e-02 8.446338e-20)	8
0.01275       	rho           	1.399476e+00	(9.522837e-03 8.170950e-03 3.516145e-19)	9	4.987043e+00	(4.381270e-02 1.349783e-02 8.446338e-20)	8
0.01275       	p             	9.996471e-01	(9.522837e-03 8.170950e-03 3.516145e-19)	9	6.661423e+00	(4.381270e-02 1.349783e-02 8.446338e-20)	8
0.013         	rho           	1.399430e+00	(9.522837e-03 8.170950e-03 3.516145e-19)	9	5.006338e+00	(4.381270e-02 1.349783e-02 8.446338e-20)	8
0.013         	p             	9.995877e-01	(9.522837e-03 8.170950e-03 3.516145e-19)	9	6.703888e+00	(4.381270e-02 1.349783e-02 8.446338e-20)	8
0.01325       	rho           	1.399378e+00	(9.522837e-03 8.170950e-03 3.516145e-19)	9	5.023098e+00	(4.381270e-02 1.349783e-02 8.446338e-20)	8
0.01325       	p             	9.994775e-01	(5.143266e-02 2.591047e-02 -2.354709e-20)	8	6.740623e+00	(4.381270e-02 1.349783e-02 8.446338e-20)	8
0.0135        	rho           	1.399326e+00	(9.522837e-03 8.170950e-03 3.516145e-19)	9	5.037687e+00	(4.381270e-02 1.349783e-02 8.446338e-20)	8
0.0135        	p             	9.992763e-01	(5.143266e-02 2.591047e-02 -2.354709e-20)	8	6.772025e+00	(4.381270e-02 1.349783e-02 8.446338e-20)	8
0.01375       	rho           	1.399240e+00	(5.143266e-02 2.591047e-02 -2.354709e-20)	8	5.050099e+00	(4.381270e-02 1.349783e-02 8.446338e-20)	8
0.01375       	p             	9.991207e-01	(5.143266e-02 2.591047e-02 -2.354709e-20)	8	6.797920e+00	(4.381270e-02 1.349783e-02 8.446338e-20)	8
0.014         	rho           	1.399134e+00	(5.143266e-02 2.591047e-02 -2.354709e-20)	8	5.060400e+00	(4.381270e-02 1.349783e-02 8.446338e-20)	8
0.014         	p             	9.990096e-01	(5.143266e-02 2.591047e-02 -2.354709e-20)	8	6.818434e+00	(4.381270e-02 1.349783e-02 8.446338e-20)	8
0.01425       	rho           	1.399109e+00	(5.143266e-02 2.591047e-02 -2.354709e-20)	8	5.068607e+00	(4.381270e-02 1.349783e-02 8.446338e-20)	8
0.01425       	p             	9.989958e-01	(5.143266e-02 2.591047e-02 -2.354709e-20)	8	6.833757e+00	(4.381270e-02 1.349783e-02 8.446338e-20)	8
0.0145        	rho           	1.399149e+00	(5.143266e-02 2.591047e-02 -2.354709e-20)	8	5.074614e+00	(4.381270e-02 1.349783e-02 8.446338e-20)	8
0.0145        	p             	9.990594e-01	(5.143266e-02 2.591047e-02 -2.354709e-20)	8	6.843877e+00	(4.381270e-02 1.349783e-02 8.446338e-20)	8
0.01475       	rho           	1.399210e+00	(9.522837e-03 8.170950e-03 3.516145e-19)	9	5.078253e+00	(4.381270e-02 1.349783e-02 8.446338e-20)	8
0.01475       	p             	9.991650e-01	(5.143266e-02 2.591047e-02 -2.354709e-20)	8	6.851222e+00	(4.762268e-02 1.450595e-02 -3.053184e-20)	8
0.015         	rho           	1.399218e+00	(9.522837e-03 8.170950e-03 3.516145e-19)	9	5.081442e+00	(4.762268e-02 1.450595e-02 -3.053184e-20)	8
0.015         	p             	9.992874e-01	(5.143266e-02 2.591047e-02 -2.354709e-20)	8	6.866133e+00	(4.762268e-02 1.450595e-02 -3.053184e-20)	8
0.01525       	rho           	1.399229e+00	(9.522837e-03 8.170950e-03 3.516145e-19)	9	5.086528e+00	(4.762268e-02 1.450595e-02 -3.053184e-20)	8
0.01525       	p             	9.993725e-01	(9.522837e-03 8.170950e-03 3.516145e-19)	9	6.877953e+00	(4.762268e-02 1.450595e-02 -3.053184e-20)	8
0.0155        	rho           	1.399240e+00	(9.522837e-03 8.170950e-03 3.516145e-19)	9	5.090076e+00	(4.762268e-02 1.450595e-02 -3.053184e-20)	8
0.0155        	p             	9.993859e-01	(9.522837e-03 8.170950e-03 3.516145e-19)	9	6.886124e+00	(4.762268e-02 1.450595e-02 -3.053184e-20)	8
0.01575       	rho           	1.399247e+00	(9.522837e-03 8.170950e-03 3.516145e-19)	9	5.092473e+00	(4.762268e-02 1.450595e-02 -3.053184e-20)	8
0.01575       	p             	9.993952e-01	(9.522837e-03 8.170950e-03 3.516145e-19)	9	6.890996e+00	(4.762268e-02 1.450595e-02 -3.053184e-20)	8
0.016         	rho           	1.399251e+00	(9.522837e-03 8.170950e-03 3.516145e-19)	9	5.094005e+00	(4.762268e-02 1.450595e-02 -3.053184e-20)	8
0.016         	p             	9.993994e-01	(9.522837e-03 8.170950e-03 3.516145e-19)	9	6.893134e+00	(4.762268e-02 1.450595e-02 -3.053184e-20)	8
0.01625       	rho           	1.399251e+00	(9.522837e-03 8.170950e-03 3.516145e-19)	9	5.094891e+00	(4.762268e-02 1.450595e-02 -3.053184e-20)	8
0.01625       	p             	9.993981e-01	(3.238274e-02 1.765962e-02 -2.777854e-20)	8	6.893149e+00	(4.762268e-02 1.450595e-02 -3.053184e-20)	8
0.0165        	rho           	1.399251e+00	(9.522837e-03 8.170950e-03 3.516145e-19)	9	5.095313e+00	(4.762268e-02 1.450595e-02 -3.053184e-20)	8
0.0165        	p             	9.993339e-01	(6.667259e-02 3.300007e-02 -1.762708e-20)	8	6.891679e+00	(4.762268e-02 1.450595e-02 -3.053184e-20)	8
0.01675       	rho           	1.399257e+00	(9.522837e-03 8.170950e-03 3.516145e-19)	9	5.095424e+00	(4.762268e-02 1.450595e-02 -3.053184e-20)	8
0.01675       	p             	9.993497e-01	(6.667259e-02 3.300007e-02 -1.762708e-20)	8	6.889334e+00	(4.762268e-02 1.450595e-02 -3.053184e-20)	8
0.017         	rho           	1.399273e+00	(9.522837e-03 8.170950e-03 3.516145e-19)	9	5.095359e+00	(4.762268e-02 1.450595e-02 -3.053184e-20)	8
0.017         	p             	9.994261e-01	(9.522837e-03 8.170950e-03 3.516145e-19)	9	6.886666e+00	(4.762268e-02 1.450595e-02 -3.053184e-20)	8
0.01725       	rho           	1.399308e+00	(9.522837e-03 8.170950e-03 3.516145e-19)	9	5.095264e+00	(4.762268e-02 1.450595e-02 -3.053184e-20)	8
0.01725       	p             	9.994663e-01	(9.522837e-03 8.170950e-03 3.516145e-19)	9	6.884182e+00	(4.762268e-02 1.450595e-02 -3.053184e-20)	8
0.0175        	rho           	1.399366e+00	(9.522837e-03 8.170950e-03 3.516145e-19)	9	5.095308e+00	(4.762268e-02 1.450595e-02 -3.053184e-20)	8
0.0175        	p             	9.995335e-01	(9.522837e-03 8.170950e-03 3.516145e-19)	9	6.882355e+00	(4.762268e-02 1.450595e-02 -3.053184e-20)	8
0.01775       	rho           	1.399451e+00	(9.522837e-03 8.170950e-03 3.516145e-19)	9	5.095656e+00	(4.762268e-02 1.450595e-02 -3.053184e-20)	8
0.01775       	p             	9.995413e-01	(5.143266e-02 2.591047e-02 -2.354709e-20)	8	6.881576e+00	(4.762268e-02 1.450595e-02 -3.053184e-20)	8
0.018         	rho           	1.399534e+00	(5.143266e-02 2.591047e-02 -2.354709e-20)	8	5.096440e+00	(4.762268e-02 1.450595e-02 -3.053184e-20)	8
0.018         	p             	9.995609e-01	(5.143266e-02 2.591047e-02 -2.354709e-20)	8	6.882108e+00	(4.762268e-02 1.450595e-02 -3.053184e-20)	8
0.01825       	rho           	1.399561e+00	(5.143266e-02 2.591047e-02 -2.354709e-20)	8	5.097755e+00	(4.762268e-02 1.450595e-02 -3.053184e-20)	8
0.01825       	p             	9.994555e-01	(6.286261e-02 3.209404e-02 1.550032e-19)	8	6.884097e+00	(4.762268e-02 1.450595e-02 -3.053184e-20)	8
0.0185        	rho           	1.399513e+00	(6.286261e-02 3.209404e-02 1.550032e-19)	8	5.099680e+00	(4.762268e-02 1.450595e-02 -3.053184e-20)	8
0.0185        	p             	9.993593e-01	(6.286261e-02 3.209404e-02 1.550032e-19)	8	6.887630e+00	(4.762268e-02 1.450595e-02 -3.053184e-20)	8
0.01875       	rho           	1.399456e+00	(6.286261e-02 3.209404e-02 1.550032e-19)	8	5.102278e+00	(4.762268e-02 1.450595e-02 -3.053184e-20)	8
0.01875       	p             	9.992924e-01	(6.286261e-02 3.209404e-02 1.550032e-19)	8	6.892751e+00	(4.762268e-02 1.450595e-02 -3.053184e-20)	8
0.019         	rho           	1.399416e+00	(6.286261e-02 3.209404e-02 1.550032e-19)	8	5.105556e+00	(4.762268e-02 1.450595e-02 -3.053184e-20)	8
0.019         	p             	9.992472e-01	(6.286261e-02 3.209404e-02 1.550032e-19)	8	6.899403e+00	(4.762268e-02 1.450595e-02 -3.053184e-20)	8
0.01925       	rho           	1.399390e+00	(6.286261e-02 3.209404e-02 1.550032e-19)	8	5.109426e+00	(4.762268e-02 1.450595e-02 -3.053184e-20)	8
0.01925       	p             	9.992175e-01	(6.286261e-02 3.209404e-02 1.550032e-19)	8	6.907357e+00	(4.762268e-02 1.450595e-02 -3.053184e-20)	8
0.0195        	rho           	1.399373e+00	(6.286261e-02 3.209404e-02 1.550032e-19)	8	5.113678e+00	(4.762268e-02 1.450595e-02 -3.053184e-20)	8
0.0195        	p             	9.991986e-01	(6.286261e-02 3.209404e-02 1.550032e-19)	8	6.916164e+00	(4.762268e-02 1.450595e-02 -3.053184e-20)	8
0.01975       	rho           	1.399363e+00	(6.286261e-02 3.209404e-02 1.550032e-19)	8	5.117995e+00	(4.762268e-02 1.450595e-02 -3.053184e-20)	8
0.01975       	p             	9.991873e-01	(6.286261e-02 3.209404e-02 1.550032e-19)	8	6.925174e+00	(4.762268e-02 1.450595e-02 -3.053184e-20)	8
0.02          	rho           	1.399358e+00	(6.286261e-02 3.209404e-02 1.550032e-19)	8	5.121980e+00	(4.762268e-02 1.450595e-02 -3.053184e-20)	8
0.02          	p             	9.991813e-01	(6.286261e-02 3.209404e-02 1.550032e-19)	8	6.933586e+00	(4.762268e-02 1.450595e-02 -3.053184e-20)	8
0.02025       	rho           	1.399355e+00	(6.286261e-02 3.209404e-02 1.550032e-19)	8	5.125189e+00	(4.762268e-02 1.450595e-02 -3.053184e-20)	8
0.02025       	p             	9.991788e-01	(6.286261e-02 3.209404e-02 1.550032e-19)	8	6.940514e+00	(4.762268e-02 1.450595e-02 -3.053184e-20)	8
0.0205        	rho           	1.399355e+00	(6.286261e-02 3.209404e-02 1.550032e-19)	8	5.127177e+00	(4.762268e-02 1.450595e-02 -3.053184e-20)	8
0.0205        	p             	9.991786e-01	(6.286261e-02 3.209404e-02 1.550032e-19)	8	6.945062e+00	(4.762268e-02 1.450595e-02 -3.053184e-20)	8
0.02075       	rho           	1.399087e+00	(9.522837e-03 8.170950e-03 3.516145e-19)	9	5.127549e+00	(4.762268e-02 1.450595e-02 -3.053184e-20)	8
0.02075       	p             	9.991419e-01	(9.522837e-03 8.170950e-03 3.516145e-19)	9	6.946431e+00	(4.762268e-02 1.450595e-02 -3.053184e-20)	8
0.021         	rho           	1.398762e+00	(9.522837e-03 8.170950e-03 3.516145e-19)	9	5.126023e+00	(4.762268e-02 1.450595e-02 -3.053184e-20)	8
0.021         	p             	9.987745e-01	(9.522837e-03 8.170950e-03 3.516145e-19)	9	6.944040e+00	(4.762268e-02 1.450595e-02 -3.053184e-20)	8
0.02125       	rho           	1.398578e+00	(9.522837e-03 8.170950e-03 3.516145e-19)	9	5.122503e+00	(4.762268e-02 1.450595e-02 -3.053184e-20)	8
0.02125       	p             	9.985829e-01	(9.522837e-03 8.170950e-03 3.516145e-19)	9	6.937664e+00	(4.762268e-02 1.450595e-02 -3.053184e-20)	8
0.0215        	rho           	1.398477e+00	(9.522837e-03 8.170950e-03 3.516145e-19)	9	5.117129e+00	(4.762268e-02 1.450595e-02 -3.053184e-20)	8
0.0215        	p             	9.984854e-01	(9.522837e-03 8.170950e-03 3.516145e-19)	9	6.927544e+00	(4.762268e-02 1.450595e-02 -3.053184e-20)	8
0.02175       	rho           	1.398423e+00	(9.522837e-03 8.170950e-03 3.516145e-19)	9	5.110295e+00	(4.762268e-02 1.450595e-02 -3.053184e-20)	8
0.02175       	p             	9.984378e-01	(9.522837e-03 8.170950e-03 3.516145e-19)	9	6.914432e+00	(4.762268e-02 1.450595e-02 -3.053184e-20)	8
0.022         	rho           	1.398396e+00	(9.522837e-03 8.170950e-03 3.516145e-19)	9	5.102614e+00	(4.762268e-02 1.450595e-02 -3.053184e-20)	8
0.022         	p             	9.984166e-01	(9.522837e-03 8.170950e-03 3.516145e-19)	9	6.899520e+00	(4.762268e-02 1.450595e-02 -3.053184e-20)	8
0.02225       	rho           	1.398385e+00	(9.522837e-03 8.170950e-03 3.516145e-19)	9	5.094843e+00	(4.762268e-02 1.450595e-02 -3.053184e-20)	8
0.02225       	p             	9.984093e-01	(9.522837e-03 8.170950e-03 3.516145e-19)	9	6.884285e+00	(4.762268e-02 1.450595e-02 -3.053184e-20)	8
0.0225        	rho           	1.398382e+00	(9.522837e-03 8.170950e-03 3.516145e-19)	9	5.087773e+00	(4.762268e-02 1.450595e-02 -3.053184e-20)	8
0.0225        	p             	9.984092e-01	(9.522837e-03 8.170950e-03 3.516145e-19)	9	6.870277e+00	(4.762268e-02 1.450595e-02 -3.053184e-20)	8
0.02275       	rho           	1.398384e+00	(9.522837e-03 8.170950e-03 3.516145e-19)	9	5.082122e+00	(4.762268e-02 1.450595e-02 -3.053184e-20)	8
0.02275       	p             	9.984132e-01	(9.522837e-03 8.170950e-03 3.516145e-19)	9	6.858893e+00	(4.762268e-02 1.450595e-02 -3.053184e-20)	8
0.023         	rho           	1.398390e+00	(9.522837e-03 8.170950e-03 3.516145e-19)	9	5.078446e+00	(4.762268e-02 1.450595e-02 -3.053184e-20)	8
0.023         	p             	9.984194e-01	(9.522837e-03 8.170950e-03 3.516145e-19)	9	6.851235e+00	(4.762268e-02 1.450595e-02 -3.053184e-20)	8
0.02325       	rho           	1.398508e+00	(9.522837e-03 8.170950e-03 3.516145e-19)	9	5.077105e+00	(4.762268e-02 1.450595e-02 -3.053184e-20)	8
0.02325       	p             	9.985579e-01	(9.522837e-03 8.170950e-03 3.516145e-19)	9	6.848032e+00	(4.762268e-02 1.450595e-02 -3.053184e-20)	8
0.0235        	rho           	1.398950e+00	(9.522837e-03 8.170950e-03 3.516145e-19)	9	5.078180e+00	(4.762268e-02 1.450595e-02 -3.053184e-20)	8
0.0235        	p             	9.990740e-01	(9.522837e-03 8.170950e-03 3.516145e-19)	9	6.849483e+00	(4.762268e-02 1.450595e-02 -3.053184e-20)	8
0.02375       	rho           	1.399355e+00	(6.286261e-02 3.209404e-02 1.550032e-19)	8	5.081408e+00	(4.762268e-02 1.450595e-02 -3.053184e-20)	8
0.02375       	p             	9.991774e-01	(6.286261e-02 3.209404e-02 1.550032e-19)	8	6.855143e+00	(4.762268e-02 1.450595e-02 -3.053184e-20)	8
0.024         	rho           	1.399356e+00	(6.286261e-02 3.209404e-02 1.550032e-19)	8	5.086432e+00	(4.762268e-02 1.450595e-02 -3.053184e-20)	8
0.024         	p             	9.991785e-01	(6.286261e-02 3.209404e-02 1.550032e-19)	8	6.864405e+00	(4.762268e-02 1.450595e-02 -3.053184e-20)	8
0.02425       	rho           	1.399358e+00	(6.286261e-02 3.209404e-02 1.550032e-19)	8	5.092998e+00	(4.762268e-02 1.450595e-02 -3.053184e-20)	8
0.02425       	p             	9.991803e-01	(6.286261e-02 3.209404e-02 1.550032e-19)	8	6.876853e+00	(4.762268e-02 1.450595e-02 -3.053184e-20)	8
0.0245        	rho           	1.399360e+00	(6.286261e-02 3.209404e-02 1.550032e-19)	8	5.100746e+00	(4.762268e-02 1.450595e-02 -3.053184e-20)	8
0.0245        	p             	9.991827e-01	(6.286261e-02 3.209404e-02 1.550032e-19)	8	6.891800e+00	(4.762268e-02 1.450595e-02 -3.053184e-20)	8
0.02475       	rho           	1.399362e+00	(6.286261e-02 3.209404e-02 1.550032e-19)	8	5.109107e+00	(4.762268e-02 1.450595e-02 -3.053184e-20)	8
0.02475       	p             	9.991854e-01	(6.286261e-02 3.209404e-02 1.550032e-19)	8	6.908088e+00	(4.762268e-02 1.450595e-02 -3.053184e-20)	8
0.025         	rho           	1.399322e+00	(5.712852e-03 7.188351e-03 1.041815e-20)	9	5.117377e+00	(4.762268e-02 1.450595e-02 -3.053184e-20)	8
0.025         	p             	9.991883e-01	(6.286261e-02 3.209404e-02 1.550032e-19)	8	6.924288e+00	(4.762268e-02 1.450595e-02 -3.053184e-20)	8
0.02525       	rho           	1.399240e+00	(5.712852e-03 7.188351e-03 1.041815e-20)	9	5.124781e+00	(4.762268e-02 1.450595e-02 -3.053184e-20)	8
0.02525       	p             	9.991911e-01	(6.286261e-02 3.209404e-02 1.550032e-19)	8	6.938868e+00	(4.762268e-02 1.450595e-02 -3.053184e-20)	8
0.0255        	rho           	1.399190e+00	(5.712852e-03 7.188351e-03 1.041815e-20)	9	5.130538e+00	(4.762268e-02 1.450595e-02 -3.053184e-20)	8
0.0255        	p             	9.991825e-01	(5.712852e-03 7.188351e-03 1.041815e-20)	9	6.950330e+00	(4.762268e-02 1.450595e-02 -3.053184e-20)	8
0.02575       	rho           	1.399164e+00	(5.712852e-03 7.188351e-03 1.041815e-20)	9	5.133973e+00	(4.762268e-02 1.450595e-02 -3.053184e-20)	8
0.02575       	p             	9.991590e-01	(5.712852e-03 7.188351e-03 1.041815e-20)	9	6.957397e+00	(4.762268e-02 1.450595e-02 -3.053184e-20)	8
0.026         	rho           	1.399159e+00	(5.712852e-03 7.188351e-03 1.041815e-20)	9	5.134595e+00	(4.762268e-02 1.450595e-02 -3.053184e-20)	8
0.026         	p             	9.991540e-01	(5.712852e-03 7.188351e-03 1.041815e-20)	9	6.959139e+00	(4.762268e-02 1.450595e-02 -3.053184e-20)	8