# Field minima and maxima
# Time          	field           	min             	location(min)   	processor       	max             	location(max)   	processor       
0.02            	p               	8.47685754e-01	(6.56300376e-01 8.90884355e-02 -3.66541927e-19)	13	1.17073598e+00	(4.68698630e-01 1.10578118e-01 4.99158216e-20)	13
0.04            	p               	7.36552638e-01	(7.18799894e-01 7.83435919e-02 -4.21203696e-19)	13	1.32608985e+00	(4.68698630e-01 1.10578118e-01 4.99158216e-20)	13
0.06            	p               	6.53628919e-01	(9.68798052e-01 3.53642022e-02 -7.29759770e-20)	0	1.46410219e+00	(4.68698630e-01 1.10578118e-01 4.99158216e-20)	13
0.08            	p               	5.93133166e-01	(9.68798052e-01 3.53642022e-02 -7.29759770e-20)	0	1.58188672e+00	(4.68698630e-01 1.10578118e-01 4.99158216e-20)	13
0.1             	p               	5.51712170e-01	(9.68798052e-01 3.53642022e-02 -7.29759770e-20)	0	1.67669292e+00	(4.68698630e-01 1.10578118e-01 4.99158216e-20)	13
0.12            	p               	5.27249605e-01	(9.68798052e-01 3.53642022e-02 -7.29759770e-20)	0	1.74498969e+00	(4.68698630e-01 1.10578118e-01 4.99158216e-20)	13
0.14            	p               	5.21102872e-01	(9.68798052e-01 3.53642022e-02 -7.29759770e-20)	0	1.78198606e+00	(4.68698630e-01 1.10578118e-01 4.99158216e-20)	13
0.16            	p               	5.33556859e-01	(9.68798052e-01 3.53642022e-02 -7.29759770e-20)	0	1.78209677e+00	(4.68698630e-01 1.10578118e-01 4.99158216e-20)	13
0.18            	p               	4.95106158e-01	(7.18799894e-01 7.83435919e-02 -4.21203696e-19)	13	1.74755229e+00	(4.68698630e-01 1.10578118e-01 4.99158216e-20)	13
0.2             	p               	4.47033372e-01	(7.18799894e-01 7.83435919e-02 -4.21203696e-19)	13	1.74724213e+00	(2.18700580e-01 6.75987467e-02 5.27080384e-19)	12
0.22            	p               	4.04201762e-01	(7.18799894e-01 7.83435919e-02 -4.21203696e-19)	13	1.78311702e+00	(2.18700580e-01 6.75987467e-02 5.27080384e-19)	12
0.24            	p               	3.70442649e-01	(7.18799894e-01 7.83435919e-02 -4.21203696e-19)	13	1.80936123e+00	(2.18700580e-01 6.75987467e-02 5.27080384e-19)	12
0.26            	p               	3.48027274e-01	(7.18799894e-01 7.83435919e-02 -4.21203696e-19)	13	1.83054797e+00	(2.18700580e-01 6.75987467e-02 5.27080384e-19)	12
0.28            	p               	3.30545716e-01	(7.81299420e-01 6.75987467e-02 -1.23816138e-18)	0	1.85016380e+00	(2.18700580e-01 6.75987467e-02 5.27080384e-19)	12
0.3             	p               	3.18136110e-01	(7.81299420e-01 6.75987467e-02 -1.23816138e-18)	0	1.86946528e+00	(2.18700580e-01 6.75987467e-02 5.27080384e-19)	12
0.32            	p               	3.10736842e-01	(7.81299420e-01 6.75987467e-02 -1.23816138e-18)	0	1.88748137e+00	(2.18700580e-01 6.75987467e-02 5.27080384e-19)	12
0.34            	p               	3.07835789e-01	(7.81299420e-01 6.75987467e-02 -1.23816138e-18)	0	1.90308809e+00	(2.18700580e-01 6.75987467e-02 5.27080384e-19)	12
0.36            	p               	3.08261188e-01	(7.81299420e-01 6.75987467e-02 -1.23816138e-18)	0	1.91599028e+00	(2.18700580e-01 6.75987467e-02 5.27080384e-19)	12
0.38            	p               	3.10596763e-01	(7.81299420e-01 6.75987467e-02 -1.23816138e-18)	0	1.92631035e+00	(2.18700580e-01 6.75987467e-02 5.27080384e-19)	12
0.4             	p               	3.13238634e-01	(7.81299420e-01 6.75987467e-02 -1.23816138e-18)	0	1.93428722e+00	(2.18700580e-01 6.75987467e-02 5.27080384e-19)	12
0.42            	p               	3.15069088e-01	(7.81299420e-01 6.75987467e-02 -1.23816138e-18)	0	1.94021648e+00	(2.18700580e-01 6.75987467e-02 5.27080384e-19)	12
0.44            	p               	3.16398734e-01	(7.81299420e-01 6.75987467e-02 -1.23816138e-18)	0	1.94452330e+00	(2.18700580e-01 6.75987467e-02 5.27080384e-19)	12
0.46            	p               	3.18416220e-01	(7.81299420e-01 6.75987467e-02 -1.23816138e-18)	0	1.94787962e+00	(2.18700580e-01 6.75987467e-02 5.27080384e-19)	12
0.48            	p               	3.21610328e-01	(7.81299420e-01 6.75987467e-02 -1.23816138e-18)	0	1.95095167e+00	(2.18700580e-01 6.75987467e-02 5.27080384e-19)	12
0.5             	p               	3.25486800e-01	(7.81299420e-01 6.75987467e-02 -1.23816138e-18)	0	1.95393734e+00	(2.18700580e-01 6.75987467e-02 5.27080384e-19)	12
0.52            	p               	3.28519505e-01	(7.81299420e-01 6.75987467e-02 -1.23816138e-18)	0	1.95652848e+00	(2.18700580e-01 6.75987467e-02 5.27080384e-19)	12
0.54            	p               	3.29794657e-01	(7.81299420e-01 6.75987467e-02 -1.23816138e-18)	0	1.95829687e+00	(2.18700580e-01 6.75987467e-02 5.27080384e-19)	12
0.56            	p               	3.30300003e-01	(7.81299420e-01 6.75987467e-02 -1.23816138e-18)	0	1.95901424e+00	(2.18700580e-01 6.75987467e-02 5.27080384e-19)	12
0.58            	p               	3.31262385e-01	(7.81299420e-01 6.75987467e-02 -1.23816138e-18)	0	1.95874926e+00	(2.18700580e-01 6.75987467e-02 5.27080384e-19)	12
0.6             	p               	3.33502027e-01	(7.81299420e-01 6.75987467e-02 -1.23816138e-18)	0	1.95777862e+00	(2.18700580e-01 6.75987467e-02 5.27080384e-19)	12
0.62            	p               	3.36829927e-01	(7.81299420e-01 6.75987467e-02 -1.23816138e-18)	0	1.95643715e+00	(2.18700580e-01 6.75987467e-02 5.27080384e-19)	12
0.64            	p               	3.40515440e-01	(7.81299420e-01 6.75987467e-02 -1.23816138e-18)	0	1.95500267e+00	(2.18700580e-01 6.75987467e-02 5.27080384e-19)	12
0.66            	p               	3.43981694e-01	(7.81299420e-01 6.75987467e-02 -1.23816138e-18)	0	1.95366133e+00	(2.18700580e-01 6.75987467e-02 5.27080384e-19)	12
0.68            	p               	3.47034469e-01	(7.81299420e-01 6.75987467e-02 -1.23816138e-18)	0	1.95256391e+00	(2.18700580e-01 6.75987467e-02 5.27080384e-19)	12
0.7             	p               	3.49705496e-01	(7.81299420e-01 6.75987467e-02 -1.23816138e-18)	0	1.95189726e+00	(2.18700580e-01 6.75987467e-02 5.27080384e-19)	12
0.72            	p               	3.52107219e-01	(7.81299420e-01 6.75987467e-02 -1.23816138e-18)	0	1.95184835e+00	(2.18700580e-01 6.75987467e-02 5.27080384e-19)	12
0.74            	p               	3.54426154e-01	(7.81299420e-01 6.75987467e-02 -1.23816138e-18)	0	1.95242953e+00	(2.18700580e-01 6.75987467e-02 5.27080384e-19)	12
0.76            	p               	3.56888546e-01	(7.81299420e-01 6.75987467e-02 -1.23816138e-18)	0	1.95333283e+00	(2.18700580e-01 6.75987467e-02 5.27080384e-19)	12
0.78            	p               	3.59627491e-01	(7.81299420e-01 6.75987467e-02 -1.23816138e-18)	0	1.95403996e+00	(2.18700580e-01 6.75987467e-02 5.27080384e-19)	12
0.8             	p               	3.62574704e-01	(7.81299420e-01 6.75987467e-02 -1.23816138e-18)	0	1.95413401e+00	(2.18700580e-01 6.75987467e-02 5.27080384e-19)	12
0.82            	p               	3.65498456e-01	(7.81299420e-01 6.75987467e-02 -1.23816138e-18)	0	1.95349992e+00	(2.18700580e-01 6.75987467e-02 5.27080384e-19)	12
0.84            	p               	3.68186629e-01	(7.81299420e-01 6.75987467e-02 -1.23816138e-18)	0	1.95230365e+00	(2.18700580e-01 6.75987467e-02 5.27080384e-19)	12
0.86            	p               	3.70628582e-01	(7.81299420e-01 6.75987467e-02 -1.23816138e-18)	0	1.95091153e+00	(2.18700580e-01 6.75987467e-02 5.27080384e-19)	12
0.88            	p               	3.72997987e-01	(7.81299420e-01 6.75987467e-02 -1.23816138e-18)	0	1.94981913e+00	(2.18700580e-01 6.75987467e-02 5.27080384e-19)	12
0.9             	p               	3.75448718e-01	(7.81299420e-01 6.75987467e-02 -1.23816138e-18)	0	1.94946977e+00	(2.18700580e-01 6.75987467e-02 5.27080384e-19)	12
0.92            	p               	3.77954307e-01	(7.81299420e-01 6.75987467e-02 -1.23816138e-18)	0	1.94996650e+00	(2.18700580e-01 6.75987467e-02 5.27080384e-19)	12
0.94            	p               	3.80309598e-01	(7.81299420e-01 6.75987467e-02 -1.23816138e-18)	0	1.95096838e+00	(2.18700580e-01 6.75987467e-02 5.27080384e-19)	12
0.96            	p               	3.82261152e-01	(7.81299420e-01 6.75987467e-02 -1.23816138e-18)	0	1.95193612e+00	(2.18700580e-01 6.75987467e-02 5.27080384e-19)	12
0.98            	p               	3.83690413e-01	(7.81299420e-01 6.75987467e-02 -1.23816138e-18)	0	1.95249670e+00	(2.18700580e-01 6.75987467e-02 5.27080384e-19)	12
1               	p               	3.84730258e-01	(7.81299420e-01 6.75987467e-02 -1.23816138e-18)	0	1.95260465e+00	(2.18700580e-01 6.75987467e-02 5.27080384e-19)	12
1.02            	p               	3.85680596e-01	(7.81299420e-01 6.75987467e-02 -1.23816138e-18)	0	1.95243991e+00	(2.18700580e-01 6.75987467e-02 5.27080384e-19)	12
1.04            	p               	3.86770704e-01	(7.81299420e-01 6.75987467e-02 -1.23816138e-18)	0	1.95219897e+00	(2.18700580e-01 6.75987467e-02 5.27080384e-19)	12
1.06            	p               	3.88010061e-01	(7.81299420e-01 6.75987467e-02 -1.23816138e-18)	0	1.95195513e+00	(2.18700580e-01 6.75987467e-02 5.27080384e-19)	12
1.08            	p               	3.89242506e-01	(7.81299420e-01 6.75987467e-02 -1.23816138e-18)	0	1.95166800e+00	(2.18700580e-01 6.75987467e-02 5.27080384e-19)	12
1.1             	p               	3.90291636e-01	(7.81299420e-01 6.75987467e-02 -1.23816138e-18)	0	1.95128858e+00	(2.18700580e-01 6.75987467e-02 5.27080384e-19)	12
1.12            	p               	3.91074024e-01	(7.81299420e-01 6.75987467e-02 -1.23816138e-18)	0	1.95085127e+00	(2.18700580e-01 6.75987467e-02 5.27080384e-19)	12
1.14            	p               	3.91629343e-01	(7.81299420e-01 6.75987467e-02 -1.23816138e-18)	0	1.95049142e+00	(2.18700580e-01 6.75987467e-02 5.27080384e-19)	12
1.16            	p               	3.92061932e-01	(7.81299420e-01 6.75987467e-02 -1.23816138e-18)	0	1.95038109e+00	(2.18700580e-01 6.75987467e-02 5.27080384e-19)	12
1.18            	p               	3.92441626e-01	(7.81299420e-01 6.75987467e-02 -1.23816138e-18)	0	1.95061307e+00	(2.18700580e-01 6.75987467e-02 5.27080384e-19)	12
1.2             	p               	3.92745531e-01	(7.81299420e-01 6.75987467e-02 -1.23816138e-18)	0	1.95111448e+00	(2.18700580e-01 6.75987467e-02 5.27080384e-19)	12
1.22            	p               	3.92896005e-01	(7.81299420e-01 6.75987467e-02 -1.23816138e-18)	0	1.95167486e+00	(2.18700580e-01 6.75987467e-02 5.27080384e-19)	12
1.24            	p               	3.92866100e-01	(7.81299420e-01 6.75987467e-02 -1.23816138e-18)	0	1.95207497e+00	(2.18700580e-01 6.75987467e-02 5.27080384e-19)	12
1.26            	p               	3.92751265e-01	(7.81299420e-01 6.75987467e-02 -1.23816138e-18)	0	1.95220556e+00	(2.18700580e-01 6.75987467e-02 5.27080384e-19)	12
1.28            	p               	3.92735943e-01	(7.81299420e-01 6.75987467e-02 -1.23816138e-18)	0	1.95209271e+00	(2.18700580e-01 6.75987467e-02 5.27080384e-19)	12
1.3             	p               	3.92978196e-01	(7.81299420e-01 6.75987467e-02 -1.23816138e-18)	0	1.95184211e+00	(2.18700580e-01 6.75987467e-02 5.27080384e-19)	12
1.32            	p               	3.93485873e-01	(7.81299420e-01 6.75987467e-02 -1.23816138e-18)	0	1.95156509e+00	(2.18700580e-01 6.75987467e-02 5.27080384e-19)	12
1.34            	p               	3.94067449e-01	(7.81299420e-01 6.75987467e-02 -1.23816138e-18)	0	1.95133305e+00	(2.18700580e-01 6.75987467e-02 5.27080384e-19)	12
1.36            	p               	3.94425444e-01	(7.81299420e-01 6.75987467e-02 -1.23816138e-18)	0	1.95117032e+00	(2.18700580e-01 6.75987467e-02 5.27080384e-19)	12
1.38            	p               	3.94379163e-01	(7.81299420e-01 6.75987467e-02 -1.23816138e-18)	0	1.95107295e+00	(2.18700580e-01 6.75987467e-02 5.27080384e-19)	12
1.4             	p               	3.94038700e-01	(7.81299420e-01 6.75987467e-02 -1.23816138e-18)	0	1.95103271e+00	(2.18700580e-01 6.75987467e-02 5.27080384e-19)	12
1.42            	p               	3.93717250e-01	(7.81299420e-01 6.75987467e-02 -1.23816138e-18)	0	1.95105008e+00	(2.18700580e-01 6.75987467e-02 5.27080384e-19)	12
1.44            	p               	3.93663093e-01	(7.81299420e-01 6.75987467e-02 -1.23816138e-18)	0	1.95113021e+00	(2.18700580e-01 6.75987467e-02 5.27080384e-19)	12
1.46            	p               	3.93878857e-01	(7.81299420e-01 6.75987467e-02 -1.23816138e-18)	0	1.95126732e+00	(2.18700580e-01 6.75987467e-02 5.27080384e-19)	12
1.48            	p               	3.94145238e-01	(7.81299420e-01 6.75987467e-02 -1.23816138e-18)	0	1.95143255e+00	(2.18700580e-01 6.75987467e-02 5.27080384e-19)	12
1.5             	p               	3.94208527e-01	(7.81299420e-01 6.75987467e-02 -1.23816138e-18)	0	1.95157824e+00	(2.18700580e-01 6.75987467e-02 5.27080384e-19)	12
1.52            	p               	3.94000915e-01	(7.81299420e-01 6.75987467e-02 -1.23816138e-18)	0	1.95165813e+00	(2.18700580e-01 6.75987467e-02 5.27080384e-19)	12
1.54            	p               	3.93710241e-01	(7.81299420e-01 6.75987467e-02 -1.23816138e-18)	0	1.95164943e+00	(2.18700580e-01 6.75987467e-02 5.27080384e-19)	12
1.56            	p               	3.93627717e-01	(7.81299420e-01 6.75987467e-02 -1.23816138e-18)	0	1.95156171e+00	(2.18700580e-01 6.75987467e-02 5.27080384e-19)	12
1.58            	p               	3.93886371e-01	(7.81299420e-01 6.75987467e-02 -1.23816138e-18)	0	1.95142960e+00	(2.18700580e-01 6.75987467e-02 5.27080384e-19)	12
1.6             	p               	3.94313856e-01	(7.81299420e-01 6.75987467e-02 -1.23816138e-18)	0	1.95129619e+00	(2.18700580e-01 6.75987467e-02 5.27080384e-19)	12
1.62            	p               	3.94529235e-01	(7.81299420e-01 6.75987467e-02 -1.23816138e-18)	0	1.95119601e+00	(2.18700580e-01 6.75987467e-02 5.27080384e-19)	12
1.64            	p               	3.94256159e-01	(7.81299420e-01 6.75987467e-02 -1.23816138e-18)	0	1.95114517e+00	(2.18700580e-01 6.75987467e-02 5.27080384e-19)	12
1.66            	p               	3.93595977e-01	(7.81299420e-01 6.75987467e-02 -1.23816138e-18)	0	1.95114131e+00	(2.18700580e-01 6.75987467e-02 5.27080384e-19)	12
1.68            	p               	3.92977579e-01	(7.81299420e-01 6.75987467e-02 -1.23816138e-18)	0	1.95117118e+00	(2.18700580e-01 6.75987467e-02 5.27080384e-19)	12
1.7             	p               	3.92879227e-01	(7.81299420e-01 6.75987467e-02 -1.23816138e-18)	0	1.95121986e+00	(2.18700580e-01 6.75987467e-02 5.27080384e-19)	12
1.72            	p               	3.93509039e-01	(7.81299420e-01 6.75987467e-02 -1.23816138e-18)	0	1.95127674e+00	(2.18700580e-01 6.75987467e-02 5.27080384e-19)	12
1.74            	p               	3.94587060e-01	(7.81299420e-01 6.75987467e-02 -1.23816138e-18)	0	1.95133560e+00	(2.18700580e-01 6.75987467e-02 5.27080384e-19)	12
1.76            	p               	3.95421539e-01	(7.81299420e-01 6.75987467e-02 -1.23816138e-18)	0	1.95139103e+00	(2.18700580e-01 6.75987467e-02 5.27080384e-19)	12
1.78            	p               	3.95387120e-01	(7.81299420e-01 6.75987467e-02 -1.23816138e-18)	0	1.95143598e+00	(2.18700580e-01 6.75987467e-02 5.27080384e-19)	12
1.8             	p               	3.94510586e-01	(7.81299420e-01 6.75987467e-02 -1.23816138e-18)	0	1.95146283e+00	(2.18700580e-01 6.75987467e-02 5.27080384e-19)	12
1.82            	p               	3.93381012e-01	(7.81299420e-01 6.75987467e-02 -1.23816138e-18)	0	1.95146658e+00	(2.18700580e-01 6.75987467e-02 5.27080384e-19)	12
1.84            	p               	3.92608795e-01	(7.81299420e-01 6.75987467e-02 -1.23816138e-18)	0	1.95144740e+00	(2.18700580e-01 6.75987467e-02 5.27080384e-19)	12
1.86            	p               	3.92566997e-01	(7.81299420e-01 6.75987467e-02 -1.23816138e-18)	0	1.95141102e+00	(2.18700580e-01 6.75987467e-02 5.27080384e-19)	12
1.88            	p               	3.93304485e-01	(7.81299420e-01 6.75987467e-02 -1.23816138e-18)	0	1.95136696e+00	(2.18700580e-01 6.75987467e-02 5.27080384e-19)	12
1.9             	p               	3.94466049e-01	(7.81299420e-01 6.75987467e-02 -1.23816138e-18)	0	1.95132590e+00	(2.18700580e-01 6.75987467e-02 5.27080384e-19)	12
1.92            	p               	3.95358905e-01	(7.81299420e-01 6.75987467e-02 -1.23816138e-18)	0	1.95129723e+00	(2.18700580e-01 6.75987467e-02 5.27080384e-19)	12
1.94            	p               	3.95332075e-01	(7.81299420e-01 6.75987467e-02 -1.23816138e-18)	0	1.95128734e+00	(2.18700580e-01 6.75987467e-02 5.27080384e-19)	12
1.96            	p               	3.94375942e-01	(7.81299420e-01 6.75987467e-02 -1.23816138e-18)	0	1.95129876e+00	(2.18700580e-01 6.75987467e-02 5.27080384e-19)	12
1.98            	p               	3.93134126e-01	(7.81299420e-01 6.75987467e-02 -1.23816138e-18)	0	1.95132982e+00	(2.18700580e-01 6.75987467e-02 5.27080384e-19)	12
2               	p               	3.92240772e-01	(7.81299420e-01 6.75987467e-02 -1.23816138e-18)	0	1.95137490e+00	(2.18700580e-01 6.75987467e-02 5.27080384e-19)	12
2.02            	p               	3.91984464e-01	(7.81299420e-01 6.75987467e-02 -1.23816138e-18)	0	1.95142556e+00	(2.18700580e-01 6.75987467e-02 5.27080384e-19)	12
2.04            	p               	3.92369714e-01	(7.81299420e-01 6.75987467e-02 -1.23816138e-18)	0	1.95147235e+00	(2.18700580e-01 6.75987467e-02 5.27080384e-19)	12
2.06            	p               	3.93201765e-01	(7.81299420e-01 6.75987467e-02 -1.23816138e-18)	0	1.95150690e+00	(2.18700580e-01 6.75987467e-02 5.27080384e-19)	12
2.08            	p               	3.94119247e-01	(7.81299420e-01 6.75987467e-02 -1.23816138e-18)	0	1.95152368e+00	(2.18700580e-01 6.75987467e-02 5.27080384e-19)	12
2.1             	p               	3.94663170e-01	(7.81299420e-01 6.75987467e-02 -1.23816138e-18)	0	1.95152087e+00	(2.18700580e-01 6.75987467e-02 5.27080384e-19)	12
2.12            	p               	3.94500102e-01	(7.81299420e-01 6.75987467e-02 -1.23816138e-18)	0	1.95150017e+00	(2.18700580e-01 6.75987467e-02 5.27080384e-19)	12
2.14            	p               	3.93736922e-01	(7.81299420e-01 6.75987467e-02 -1.23816138e-18)	0	1.95146599e+00	(2.18700580e-01 6.75987467e-02 5.27080384e-19)	12
2.16            	p               	3.92873027e-01	(7.81299420e-01 6.75987467e-02 -1.23816138e-18)	0	1.95142427e+00	(2.18700580e-01 6.75987467e-02 5.27080384e-19)	12
2.18            	p               	3.92369097e-01	(7.81299420e-01 6.75987467e-02 -1.23816138e-18)	0	1.95138156e+00	(2.18700580e-01 6.75987467e-02 5.27080384e-19)	12
2.2             	p               	3.92431043e-01	(7.81299420e-01 6.75987467e-02 -1.23816138e-18)	0	1.95134426e+00	(2.18700580e-01 6.75987467e-02 5.27080384e-19)	12
2.22            	p               	3.93043317e-01	(7.81299420e-01 6.75987467e-02 -1.23816138e-18)	0	1.95131792e+00	(2.18700580e-01 6.75987467e-02 5.27080384e-19)	12
2.24            	p               	3.93971189e-01	(7.81299420e-01 6.75987467e-02 -1.23816138e-18)	0	1.95130636e+00	(2.18700580e-01 6.75987467e-02 5.27080384e-19)	12
2.26            	p               	3.94757466e-01	(7.81299420e-01 6.75987467e-02 -1.23816138e-18)	0	1.95131048e+00	(2.18700580e-01 6.75987467e-02 5.27080384e-19)	12
2.28            	p               	3.94894070e-01	(7.81299420e-01 6.75987467e-02 -1.23816138e-18)	0	1.95132766e+00	(2.18700580e-01 6.75987467e-02 5.27080384e-19)	12
2.3             	p               	3.94232717e-01	(7.81299420e-01 6.75987467e-02 -1.23816138e-18)	0	1.95135174e+00	(2.18700580e-01 6.75987467e-02 5.27080384e-19)	12
2.32            	p               	3.93222762e-01	(7.81299420e-01 6.75987467e-02 -1.23816138e-18)	0	1.95137391e+00	(2.18700580e-01 6.75987467e-02 5.27080384e-19)	12
2.34            	p               	3.92561532e-01	(7.81299420e-01 6.75987467e-02 -1.23816138e-18)	0	1.95138469e+00	(2.18700580e-01 6.75987467e-02 5.27080384e-19)	12
2.36            	p               	3.92691527e-01	(7.81299420e-01 6.75987467e-02 -1.23816138e-18)	0	1.95137685e+00	(2.18700580e-01 6.75987467e-02 5.27080384e-19)	12
2.38            	p               	3.93543865e-01	(7.81299420e-01 6.75987467e-02 -1.23816138e-18)	0	1.95134851e+00	(2.18700580e-01 6.75987467e-02 5.27080384e-19)	12
2.4             	p               	3.94546444e-01	(7.81299420e-01 6.75987467e-02 -1.23816138e-18)	0	1.95130491e+00	(2.18700580e-01 6.75987467e-02 5.27080384e-19)	12
2.42            	p               	3.94915480e-01	(7.81299420e-01 6.75987467e-02 -1.23816138e-18)	0	1.95125736e+00	(2.18700580e-01 6.75987467e-02 5.27080384e-19)	12
2.44            	p               	3.94248742e-01	(7.81299420e-01 6.75987467e-02 -1.23816138e-18)	0	1.95121930e+00	(2.18700580e-01 6.75987467e-02 5.27080384e-19)	12
2.46            	p               	3.92937300e-01	(7.81299420e-01 6.75987467e-02 -1.23816138e-18)	0	1.95120164e+00	(2.18700580e-01 6.75987467e-02 5.27080384e-19)	12
2.48            	p               	3.91862635e-01	(7.81299420e-01 6.75987467e-02 -1.23816138e-18)	0	1.95120912e+00	(2.18700580e-01 6.75987467e-02 5.27080384e-19)	12
2.5             	p               	3.91823045e-01	(7.81299420e-01 6.75987467e-02 -1.23816138e-18)	0	1.95123938e+00	(2.18700580e-01 6.75987467e-02 5.27080384e-19)	12
2.52            	p               	3.93055697e-01	(7.81299420e-01 6.75987467e-02 -1.23816138e-18)	0	1.95128435e+00	(2.18700580e-01 6.75987467e-02 5.27080384e-19)	12
2.54            	p               	3.94963342e-01	(7.81299420e-01 6.75987467e-02 -1.23816138e-18)	0	1.95133353e+00	(2.18700580e-01 6.75987467e-02 5.27080384e-19)	12
2.56            	p               	3.96234148e-01	(7.81299420e-01 6.75987467e-02 -1.23816138e-18)	0	1.95137772e+00	(2.18700580e-01 6.75987467e-02 5.27080384e-19)	12
2.58            	p               	3.95758319e-01	(7.81299420e-01 6.75987467e-02 -1.23816138e-18)	0	1.95141149e+00	(2.18700580e-01 6.75987467e-02 5.27080384e-19)	12
2.6             	p               	3.93905555e-01	(7.81299420e-01 6.75987467e-02 -1.23816138e-18)	0	1.95143355e+00	(2.18700580e-01 6.75987467e-02 5.27080384e-19)	12
2.62            	p               	3.91930755e-01	(7.81299420e-01 6.75987467e-02 -1.23816138e-18)	0	1.95144539e+00	(2.18700580e-01 6.75987467e-02 5.27080384e-19)	12
2.64            	p               	3.90869742e-01	(7.81299420e-01 6.75987467e-02 -1.23816138e-18)	0	1.95144966e+00	(2.18700580e-01 6.75987467e-02 5.27080384e-19)	12
2.66            	p               	3.91363832e-01	(7.81299420e-01 6.75987467e-02 -1.23816138e-18)	0	1.95144931e+00	(2.18700580e-01 6.75987467e-02 5.27080384e-19)	12
2.68            	p               	3.93436105e-01	(7.81299420e-01 6.75987467e-02 -1.23816138e-18)	0	1.95144748e+00	(2.18700580e-01 6.75987467e-02 5.27080384e-19)	12
2.7             	p               	3.96214224e-01	(7.81299420e-01 6.75987467e-02 -1.23816138e-18)	0	1.95144745e+00	(2.18700580e-01 6.75987467e-02 5.27080384e-19)	12
2.72            	p               	3.97892286e-01	(7.81299420e-01 6.75987467e-02 -1.23816138e-18)	0	1.95145215e+00	(2.18700580e-01 6.75987467e-02 5.27080384e-19)	12
2.74            	p               	3.95829591e-01	(7.18799894e-01 7.83435919e-02 -4.21203696e-19)	13	1.95146303e+00	(2.18700580e-01 6.75987467e-02 5.27080384e-19)	12
2.76            	p               	3.93188104e-01	(7.18799894e-01 7.83435919e-02 -4.21203696e-19)	13	1.95147884e+00	(2.18700580e-01 6.75987467e-02 5.27080384e-19)	12
2.78            	p               	3.91925633e-01	(7.81299420e-01 6.75987467e-02 -1.23816138e-18)	0	1.95149518e+00	(2.18700580e-01 6.75987467e-02 5.27080384e-19)	12
2.8             	p               	3.90758122e-01	(7.81299420e-01 6.75987467e-02 -1.23816138e-18)	0	1.95150541e+00	(2.18700580e-01 6.75987467e-02 5.27080384e-19)	12
2.82            	p               	3.91106243e-01	(7.81299420e-01 6.75987467e-02 -1.23816138e-18)	0	1.95150304e+00	(2.18700580e-01 6.75987467e-02 5.27080384e-19)	12
2.84            	p               	3.92923991e-01	(7.81299420e-01 6.75987467e-02 -1.23816138e-18)	0	1.95148451e+00	(2.18700580e-01 6.75987467e-02 5.27080384e-19)	12
2.86            	p               	3.95592200e-01	(7.81299420e-01 6.75987467e-02 -1.23816138e-18)	0	1.95145107e+00	(2.18700580e-01 6.75987467e-02 5.27080384e-19)	12
2.88            	p               	3.97739254e-01	(7.81299420e-01 6.75987467e-02 -1.23816138e-18)	0	1.95140868e+00	(2.18700580e-01 6.75987467e-02 5.27080384e-19)	12
2.9             	p               	3.97650213e-01	(7.81299420e-01 6.75987467e-02 -1.23816138e-18)	0	1.95136590e+00	(2.18700580e-01 6.75987467e-02 5.27080384e-19)	12
2.92            	p               	3.93519435e-01	(7.18799894e-01 7.83435919e-02 -4.21203696e-19)	13	1.95133057e+00	(2.18700580e-01 6.75987467e-02 5.27080384e-19)	12
2.94            	p               	3.92647949e-01	(7.18799894e-01 7.83435919e-02 -4.21203696e-19)	13	1.95130696e+00	(2.18700580e-01 6.75987467e-02 5.27080384e-19)	12
2.96            	p               	3.91511902e-01	(7.81299420e-01 6.75987467e-02 -1.23816138e-18)	0	1.95129438e+00	(2.18700580e-01 6.75987467e-02 5.27080384e-19)	12
2.98            	p               	3.91148633e-01	(7.81299420e-01 6.75987467e-02 -1.23816138e-18)	0	1.95128835e+00	(2.18700580e-01 6.75987467e-02 5.27080384e-19)	12
3               	p               	3.91808697e-01	(7.81299420e-01 6.75987467e-02 -1.23816138e-18)	0	1.95128369e+00	(2.18700580e-01 6.75987467e-02 5.27080384e-19)	12
3.02            	p               	3.93364366e-01	(7.81299420e-01 6.75987467e-02 -1.23816138e-18)	0	1.95127788e+00	(2.18700580e-01 6.75987467e-02 5.27080384e-19)	12
3.04            	p               	3.95422669e-01	(7.81299420e-01 6.75987467e-02 -1.23816138e-18)	0	1.95127250e+00	(2.18700580e-01 6.75987467e-02 5.27080384e-19)	12
3.06            	p               	3.97052706e-01	(7.81299420e-01 6.75987467e-02 -1.23816138e-18)	0	1.95127176e+00	(2.18700580e-01 6.75987467e-02 5.27080384e-19)	12
3.08            	p               	3.96975399e-01	(7.18799894e-01 7.83435919e-02 -4.21203696e-19)	13	1.95127915e+00	(2.18700580e-01 6.75987467e-02 5.27080384e-19)	12
3.1             	p               	3.92831761e-01	(7.18799894e-01 7.83435919e-02 -4.21203696e-19)	13	1.95129421e+00	(2.18700580e-01 6.75987467e-02 5.27080384e-19)	12
3.12            	p               	3.91916497e-01	(7.18799894e-01 7.83435919e-02 -4.21203696e-19)	13	1.95131170e+00	(2.18700580e-01 6.75987467e-02 5.27080384e-19)	12
3.14            	p               	3.92253831e-01	(7.81299420e-01 6.75987467e-02 -1.23816138e-18)	0	1.95132391e+00	(2.18700580e-01 6.75987467e-02 5.27080384e-19)	12
3.16            	p               	3.91697826e-01	(7.81299420e-01 6.75987467e-02 -1.23816138e-18)	0	1.95132486e+00	(2.18700580e-01 6.75987467e-02 5.27080384e-19)	12
3.18            	p               	3.91920426e-01	(7.81299420e-01 6.75987467e-02 -1.23816138e-18)	0	1.95131398e+00	(2.18700580e-01 6.75987467e-02 5.27080384e-19)	12
3.2             	p               	3.93147546e-01	(7.81299420e-01 6.75987467e-02 -1.23816138e-18)	0	1.95129761e+00	(2.18700580e-01 6.75987467e-02 5.27080384e-19)	12
3.22            	p               	3.95255926e-01	(7.81299420e-01 6.75987467e-02 -1.23816138e-18)	0	1.95128671e+00	(2.18700580e-01 6.75987467e-02 5.27080384e-19)	12
3.24            	p               	3.97303614e-01	(7.81299420e-01 6.75987467e-02 -1.23816138e-18)	0	1.95129162e+00	(2.18700580e-01 6.75987467e-02 5.27080384e-19)	12
3.26            	p               	3.97379767e-01	(7.18799894e-01 7.83435919e-02 -4.21203696e-19)	13	1.95131713e+00	(2.18700580e-01 6.75987467e-02 5.27080384e-19)	12
3.28            	p               	3.92746996e-01	(7.18799894e-01 7.83435919e-02 -4.21203696e-19)	13	1.95136036e+00	(2.18700580e-01 6.75987467e-02 5.27080384e-19)	12
3.3             	p               	3.91466793e-01	(7.18799894e-01 7.83435919e-02 -4.21203696e-19)	13	1.95141240e+00	(2.18700580e-01 6.75987467e-02 5.27080384e-19)	12
3.32            	p               	3.91574128e-01	(7.81299420e-01 6.75987467e-02 -1.23816138e-18)	0	1.95146235e+00	(2.18700580e-01 6.75987467e-02 5.27080384e-19)	12
3.34            	p               	3.90961487e-01	(7.81299420e-01 6.75987467e-02 -1.23816138e-18)	0	1.95150147e+00	(2.18700580e-01 6.75987467e-02 5.27080384e-19)	12
3.36            	p               	3.91519792e-01	(7.81299420e-01 6.75987467e-02 -1.23816138e-18)	0	1.95152551e+00	(2.18700580e-01 6.75987467e-02 5.27080384e-19)	12
3.38            	p               	3.93325058e-01	(7.81299420e-01 6.75987467e-02 -1.23816138e-18)	0	1.95153467e+00	(2.18700580e-01 6.75987467e-02 5.27080384e-19)	12
3.4             	p               	3.95974964e-01	(7.81299420e-01 6.75987467e-02 -1.23816138e-18)	0	1.95153198e+00	(2.18700580e-01 6.75987467e-02 5.27080384e-19)	12
3.42            	p               	3.98180971e-01	(7.81299420e-01 6.75987467e-02 -1.23816138e-18)	0	1.95152117e+00	(2.18700580e-01 6.75987467e-02 5.27080384e-19)	12
3.44            	p               	3.96778420e-01	(7.18799894e-01 7.83435919e-02 -4.21203696e-19)	13	1.95150525e+00	(2.18700580e-01 6.75987467e-02 5.27080384e-19)	12
3.46            	p               	3.92276270e-01	(7.18799894e-01 7.83435919e-02 -4.21203696e-19)	13	1.95148595e+00	(2.18700580e-01 6.75987467e-02 5.27080384e-19)	12
3.48            	p               	3.91385138e-01	(7.18799894e-01 7.83435919e-02 -4.21203696e-19)	13	1.95146391e+00	(2.18700580e-01 6.75987467e-02 5.27080384e-19)	12
3.5             	p               	3.91644281e-01	(7.81299420e-01 6.75987467e-02 -1.23816138e-18)	0	1.95143942e+00	(2.18700580e-01 6.75987467e-02 5.27080384e-19)	12
3.52            	p               	3.91259885e-01	(7.81299420e-01 6.75987467e-02 -1.23816138e-18)	0	1.95141333e+00	(2.18700580e-01 6.75987467e-02 5.27080384e-19)	12
3.54            	p               	3.91818893e-01	(7.81299420e-01 6.75987467e-02 -1.23816138e-18)	0	1.95138783e+00	(2.18700580e-01 6.75987467e-02 5.27080384e-19)	12
3.56            	p               	3.93323566e-01	(7.81299420e-01 6.75987467e-02 -1.23816138e-18)	0	1.95136622e+00	(2.18700580e-01 6.75987467e-02 5.27080384e-19)	12
3.58            	p               	3.95546449e-01	(7.81299420e-01 6.75987467e-02 -1.23816138e-18)	0	1.95135196e+00	(2.18700580e-01 6.75987467e-02 5.27080384e-19)	12
3.6             	p               	3.97575828e-01	(7.81299420e-01 6.75987467e-02 -1.23816138e-18)	0	1.95134727e+00	(2.18700580e-01 6.75987467e-02 5.27080384e-19)	12
3.62            	p               	3.97415777e-01	(7.18799894e-01 7.83435919e-02 -4.21203696e-19)	13	1.95135151e+00	(2.18700580e-01 6.75987467e-02 5.27080384e-19)	12