# Region type : patch airfoilRear
# Faces         : 8
# Area          : 5.07713308e-02
# Scale factor  : 1.00000000e+00
# Time          	areaAverage(p)
0.02            	8.60900722e-01
0.04            	7.77047344e-01
0.06            	7.29741396e-01
0.08            	7.05550380e-01
0.1             	6.95260144e-01
0.12            	6.90832189e-01
0.14            	6.86020137e-01
0.16            	6.76136121e-01
0.18            	6.58601074e-01
0.2             	6.33861615e-01
0.22            	6.06090802e-01
0.24            	5.77733664e-01
0.26            	5.51263409e-01
0.28            	5.29778998e-01
0.3             	5.13749700e-01
0.32            	5.03439661e-01
0.34            	4.97532287e-01
0.36            	4.93895152e-01
0.38            	4.91311222e-01
0.4             	4.89494846e-01
0.42            	4.88558145e-01
0.44            	4.88493977e-01
0.46            	4.89080048e-01
0.48            	4.90166674e-01
0.5             	4.91804150e-01
0.52            	4.93970244e-01
0.54            	4.96549352e-01
0.56            	4.99381568e-01
0.58            	5.02303226e-01
0.6             	5.05216548e-01
0.62            	5.08133351e-01
0.64            	5.11112889e-01
0.66            	5.14146386e-01
0.68            	5.17124623e-01
0.7             	5.19947443e-01
0.72            	5.22609221e-01
0.74            	5.25185623e-01
0.76            	5.27761213e-01
0.78            	5.30374357e-01
0.8             	5.33005897e-01
0.82            	5.35596668e-01
0.84            	5.38070194e-01
0.86            	5.40339618e-01
0.88            	5.42335738e-01
0.9             	5.44062552e-01
0.92            	5.45610937e-01
0.94            	5.47088757e-01
0.96            	5.48555642e-01
0.98            	5.50013457e-01
1               	5.51424969e-01
1.02            	5.52743172e-01
1.04            	5.53933004e-01
1.06            	5.54996764e-01
1.08            	5.55962132e-01
1.1             	5.56819934e-01
1.12            	5.57533112e-01
1.14            	5.58072987e-01
1.16            	5.58447779e-01
1.18            	5.58709079e-01
1.2             	5.58931626e-01
1.22            	5.59177757e-01
1.24            	5.59471637e-01
1.26            	5.59798972e-01
1.28            	5.60120920e-01
1.3             	5.60385033e-01
1.32            	5.60546561e-01
1.34            	5.60593163e-01
1.36            	5.60552599e-01
1.38            	5.60475653e-01
1.4             	5.60403943e-01
1.42            	5.60351272e-01
1.44            	5.60315000e-01
1.46            	5.60297017e-01
1.48            	5.60306142e-01
1.5             	5.60345182e-01
1.52            	5.60394915e-01
1.54            	5.60435354e-01
1.56            	5.60428021e-01
1.58            	5.60345695e-01
1.6             	5.60217307e-01
1.62            	5.60103640e-01
1.64            	5.60062794e-01
1.66            	5.60107040e-01
1.68            	5.60220364e-01
1.7             	5.60356959e-01
1.72            	5.60393913e-01
1.74            	5.60294454e-01
1.76            	5.60128961e-01
1.78            	5.59988189e-01
1.8             	5.59931365e-01
1.82            	5.59976538e-01
1.84            	5.60105175e-01
1.86            	5.60288640e-01
1.88            	5.60429959e-01
1.9             	5.60454343e-01
1.92            	5.60351520e-01
1.94            	5.60172423e-01
1.96            	5.59993264e-01
1.98            	5.59882917e-01
2               	5.59893834e-01
2.02            	5.60050494e-01
2.04            	5.60307291e-01
2.06            	5.60537841e-01
2.08            	5.60613662e-01
2.1             	5.60494031e-01
2.12            	5.60244011e-01
2.14            	5.59988191e-01
2.16            	5.59844078e-01
2.18            	5.59874851e-01
2.2             	5.60077809e-01
2.22            	5.60346473e-01
2.24            	5.60519096e-01
2.26            	5.60511921e-01
2.28            	5.60353078e-01
2.3             	5.60149861e-01
2.32            	5.60002935e-01
2.34            	5.59977102e-01
2.36            	5.60042955e-01
2.38            	5.60116314e-01
2.4             	5.60156732e-01
2.42            	5.60165274e-01
2.44            	5.60172203e-01
2.46            	5.60190962e-01
2.48            	5.60260322e-01
2.5             	5.60361704e-01
2.52            	5.60342786e-01
2.54            	5.60181981e-01
2.56            	5.59977273e-01
2.58            	5.59848205e-01
2.6             	5.59843646e-01
2.62            	5.59940649e-01
2.64            	5.60201762e-01
2.66            	5.60561483e-01
2.68            	5.60742375e-01
2.7             	5.60621800e-01
2.72            	5.60309300e-01
2.74            	5.60003169e-01
2.76            	5.59818526e-01
2.78            	5.59776559e-01
2.8             	5.59943841e-01
2.82            	5.60379323e-01
2.84            	5.60861667e-01
2.86            	5.61027610e-01
2.88            	5.60804609e-01
2.9             	5.60367281e-01
2.92            	5.59934405e-01
2.94            	5.59636032e-01
2.96            	5.59582263e-01
2.98            	5.59839501e-01
3               	5.60403921e-01
3.02            	5.60992984e-01
3.04            	5.61162140e-01
3.06            	5.60810944e-01
3.08            	5.60198812e-01
3.1             	5.59638196e-01
3.12            	5.59319126e-01
3.14            	5.59342645e-01
3.16            	5.59745377e-01
3.18            	5.60477117e-01
3.2             	5.61155322e-01
3.22            	5.61277970e-01
3.24            	5.60819711e-01
3.26            	5.60132818e-01
3.28            	5.59582513e-01
3.3             	5.59332630e-01
3.32            	5.59412262e-01
3.34            	5.59861838e-01
3.36            	5.60601440e-01
3.38            	5.61239902e-01
3.4             	5.61332215e-01
3.42            	5.60892569e-01
3.44            	5.60254872e-01
3.46            	5.59731040e-01
3.48            	5.59462848e-01
3.5             	5.59513792e-01
3.52            	5.59903193e-01
3.54            	5.60603868e-01
3.56            	5.61282495e-01
3.58            	5.61453009e-01
3.6             	5.61024427e-01
3.62            	5.60312688e-01
3.64            	5.59681000e-01
3.66            	5.59329045e-01
3.68            	5.59351461e-01
3.7             	5.59716200e-01
3.72            	5.60391934e-01
3.74            	5.61129525e-01
3.76            	5.61443654e-01
3.78            	5.61106271e-01
3.8             	5.60381079e-01
3.82            	5.59683697e-01
3.84            	5.59264395e-01
3.86            	5.59224056e-01
3.88            	5.59540474e-01
3.9             	5.60155182e-01
3.92            	5.60925786e-01
3.94            	5.61447411e-01
3.96            	5.61340250e-01
3.98            	5.60717201e-01
4               	5.59979722e-01
4.02            	5.59444965e-01
4.04            	5.59245207e-01
4.06            	5.59424183e-01
4.08            	5.59921250e-01
4.1             	5.60675739e-01
4.12            	5.61389048e-01
4.14            	5.61595073e-01
4.16            	5.61166947e-01
4.18            	5.60422960e-01
4.2             	5.59760958e-01
4.22            	5.59386478e-01
4.24            	5.59384318e-01
4.26            	5.59726988e-01
4.28            	5.60338929e-01
4.3             	5.61071096e-01
4.32            	5.61533879e-01
4.34            	5.61376033e-01
4.36            	5.60720333e-01
4.38            	5.59964663e-01
4.4             	5.59422524e-01
4.42            	5.59230245e-01
4.44            	5.59426944e-01
4.46            	5.59913190e-01
4.48            	5.60613162e-01
4.5             	5.61267020e-01
4.52            	5.61446756e-01
4.54            	5.61020386e-01
4.56            	5.60284196e-01
4.58            	5.59626924e-01
4.6             	5.59256230e-01
4.62            	5.59254496e-01
4.64            	5.59603802e-01
4.66            	5.60216675e-01
4.68            	5.60963942e-01
4.7             	5.61477401e-01
4.72            	5.61388225e-01
4.74            	5.60785108e-01
4.76            	5.60054169e-01
4.78            	5.59516117e-01
4.8             	5.59300949e-01
4.82            	5.59456222e-01
4.84            	5.59917848e-01
4.86            	5.60607468e-01
4.88            	5.61308600e-01
4.9             	5.61603436e-01
4.92            	5.61272242e-01
4.94            	5.60554987e-01
4.96            	5.59849147e-01
4.98            	5.59397384e-01
5               	5.59293270e-01
5.02            	5.59552653e-01
5.04            	5.60079429e-01
5.06            	5.60772764e-01
5.08            	5.61357633e-01
5.1             	5.61441118e-01
5.12            	5.60956118e-01
5.14            	5.60215935e-01
5.16            	5.59585963e-01
5.18            	5.59248459e-01
5.2             	5.59272154e-01
5.22            	5.59632813e-01
5.24            	5.60233979e-01
5.26            	5.60940459e-01
5.28            	5.61409597e-01
5.3             	5.61303288e-01
5.32            	5.60706847e-01
5.34            	5.59988555e-01
5.36            	5.59462586e-01
5.38            	5.59256878e-01
5.4             	5.59413942e-01
5.42            	5.59867603e-01
5.44            	5.60545059e-01
5.46            	5.61240293e-01
5.48            	5.61546042e-01
5.5             	5.61236131e-01
5.52            	5.60541256e-01
5.54            	5.59854841e-01
5.56            	5.59421655e-01
5.58            	5.59333549e-01
5.6             	5.59603915e-01
5.62            	5.60137998e-01
5.64            	5.60848742e-01
5.66            	5.61444135e-01
5.68            	5.61509316e-01
5.7             	5.60994836e-01
5.72            	5.60233330e-01
5.74            	5.59593751e-01
5.76            	5.59257037e-01
5.78            	5.59294519e-01
5.8             	5.59671569e-01
5.82            	5.60294628e-01
5.84            	5.61014826e-01
5.86            	5.61459699e-01
5.88            	5.61297268e-01
5.9             	5.60654094e-01
5.92            	5.59917634e-01
5.94            	5.59390719e-01
5.96            	5.59196565e-01
5.98            	5.59375498e-01
6               	5.59857344e-01
6.02            	5.60567569e-01
6.04            	5.61254997e-01
6.06            	5.61497657e-01
6.08            	5.61127549e-01
6.1             	5.60416317e-01
6.12            	5.59755388e-01
6.14            	5.59363647e-01
6.16            	5.59322216e-01
6.18            	5.59629569e-01
6.2             	5.60205572e-01
6.22            	5.60941775e-01
6.24            	5.61499744e-01
6.26            	5.61489059e-01
6.28            	5.60933233e-01
6.3             	5.60191141e-01
6.32            	5.59605256e-01
6.34            	5.59329111e-01
6.36            	5.59420644e-01
6.38            	5.59826256e-01
6.4             	5.60455761e-01
6.42            	5.61140830e-01
6.44            	5.61497523e-01
6.46            	5.61246830e-01
6.48            	5.60566229e-01
6.5             	5.59844034e-01
6.52            	5.59353359e-01
6.54            	5.59205227e-01
6.56            	5.59429697e-01
6.58            	5.59934048e-01
6.6             	5.60630280e-01
6.62            	5.61266078e-01
6.64            	5.61434499e-01
6.66            	5.61013611e-01
6.68            	5.60292558e-01
6.7             	5.59647454e-01
6.72            	5.59277432e-01
6.74            	5.59256956e-01
6.76            	5.59583664e-01
6.78            	5.60173506e-01
6.8             	5.60908139e-01
6.82            	5.61453909e-01
6.84            	5.61434025e-01
6.86            	5.60884476e-01
6.88            	5.60164115e-01
6.9             	5.59605820e-01
6.92            	5.59347461e-01
6.94            	5.59437389e-01
6.96            	5.59841411e-01
6.98            	5.60473975e-01
7               	5.61165226e-01
7.02            	5.61543258e-01
7.04            	5.61323375e-01
7.06            	5.60664467e-01
7.08            	5.59947548e-01
7.1             	5.59450648e-01
7.12            	5.59282049e-01
7.14            	5.59471363e-01
7.16            	5.59939153e-01
7.18            	5.60594551e-01
7.2             	5.61215227e-01
7.22            	5.61417631e-01
7.24            	5.61039943e-01
7.26            	5.60334443e-01
7.28            	5.59675782e-01
7.3             	5.59283176e-01
7.32            	5.59239082e-01
7.34            	5.59543269e-01
7.36            	5.60098912e-01
7.38            	5.60806747e-01
7.4             	5.61363883e-01
7.42            	5.61385064e-01
7.44            	5.60863394e-01
7.46            	5.60139086e-01
7.48            	5.59560145e-01
7.5             	5.59283043e-01
7.52            	5.59364007e-01
7.54            	5.59767457e-01
7.56            	5.60413468e-01
7.58            	5.61144004e-01
7.6             	5.61572563e-01
7.62            	5.61382979e-01
7.64            	5.60726296e-01
7.66            	5.59994996e-01
7.68            	5.59481282e-01
7.7             	5.59300298e-01
7.72            	5.59488289e-01
7.74            	5.59965390e-01
7.76            	5.60652457e-01
7.78            	5.61311446e-01
7.8             	5.61523309e-01
7.82            	5.61123498e-01
7.84            	5.60383940e-01
7.86            	5.59695522e-01
7.88            	5.59281089e-01
7.9             	5.59228443e-01
7.92            	5.59535142e-01
7.94            	5.60109007e-01
7.96            	5.60835862e-01
7.98            	5.61385980e-01
8               	5.61373507e-01
8.02            	5.60820006e-01
8.04            	5.60082510e-01
8.06            	5.59504593e-01
8.08            	5.59238227e-01
8.1             	5.59340029e-01
8.12            	5.59758882e-01
8.14            	5.60428793e-01
8.16            	5.61150566e-01
8.18            	5.61515633e-01
8.2             	5.61260558e-01
8.22            	5.60587964e-01
8.24            	5.59893863e-01
8.26            	5.59440508e-01
8.28            	5.59328475e-01
8.3             	5.59577945e-01
8.32            	5.60100382e-01
8.34            	5.60816128e-01
8.36            	5.61436839e-01
8.38            	5.61539480e-01
8.4             	5.61052740e-01
8.42            	5.60300303e-01
8.44            	5.59655098e-01
8.46            	5.59304295e-01
8.48            	5.59322537e-01
8.5             	5.59683573e-01
8.52            	5.60289217e-01
8.54            	5.61002330e-01
8.56            	5.61462542e-01
8.58            	5.61325061e-01
8.6             	5.60694076e-01
8.62            	5.59950229e-01
8.64            	5.59404800e-01
8.66            	5.59187930e-01
8.68            	5.59346025e-01
8.7             	5.59810741e-01
8.72            	5.60499657e-01
8.74            	5.61190829e-01
8.76            	5.61477004e-01
8.78            	5.61151541e-01
8.8             	5.60455603e-01
8.82            	5.59779019e-01
8.84            	5.59355863e-01
8.86            	5.59271799e-01
8.88            	5.59540489e-01
8.9             	5.60086359e-01
8.92            	5.60812959e-01
8.94            	5.61418978e-01
8.96            	5.61503788e-01
8.98            	5.61021639e-01
9               	5.60299659e-01
9.02            	5.59696948e-01
9.04            	5.59381825e-01
9.06            	5.59414757e-01
9.08            	5.59771310e-01
9.1             	5.60359732e-01
9.12            	5.61045634e-01
9.14            	5.61484852e-01
9.16            	5.61348102e-01
9.18            	5.60731146e-01
9.2             	5.60000892e-01
9.22            	5.59463474e-01
9.24            	5.59247629e-01
9.26            	5.59396973e-01
9.28            	5.59840707e-01
9.3             	5.60485135e-01
9.32            	5.61141060e-01
9.34            	5.61427189e-01
9.36            	5.61119511e-01
9.38            	5.60433169e-01
9.4             	5.59750066e-01
9.42            	5.59315160e-01
9.44            	5.59219917e-01
9.46            	5.59481079e-01
9.48            	5.60013584e-01
9.5             	5.60727753e-01
9.52            	5.61344248e-01
9.54            	5.61456772e-01
9.56            	5.60992982e-01
9.58            	5.60269253e-01
9.6             	5.59654093e-01
9.62            	5.59327076e-01
9.64            	5.59351926e-01
9.66            	5.59711652e-01
9.68            	5.60323782e-01
9.7             	5.61058036e-01
9.72            	5.61556077e-01
9.74            	5.61456381e-01
9.76            	5.60843107e-01
9.78            	5.60094546e-01
9.8             	5.59532994e-01
9.82            	5.59292576e-01
9.84            	5.59420653e-01
9.86            	5.59854829e-01
9.88            	5.60511575e-01
9.9             	5.61188641e-01
9.92            	5.61489448e-01
9.94            	5.61179607e-01
9.96            	5.60475535e-01
9.98            	5.59769750e-01
10              	5.59316577e-01
