# Force and moment coefficients
# dragDir       : (1.00000000e+00 0.00000000e+00 0.00000000e+00)
# sideDir       : (0.00000000e+00 0.00000000e+00 -1.00000000e+00)
# liftDir       : (0.00000000e+00 1.00000000e+00 0.00000000e+00)
# rollAxis      : (1.00000000e+00 0.00000000e+00 0.00000000e+00)
# pitchAxis     : (0.00000000e+00 0.00000000e+00 -1.00000000e+00)
# yawAxis       : (0.00000000e+00 1.00000000e+00 0.00000000e+00)
# magUInf       : 2.00000000e+00
# lRef          : 1.00000000e+00
# Aref          : 1.00000000e-01
# CofR          : (2.50000000e-01 0.00000000e+00 0.00000000e+00)
#
# Time          	Cd              	Cd(f)           	Cd(r)           	Cl              	Cl(f)           	Cl(r)           	CmPitch         	CmRoll          	CmYaw           	Cs              	Cs(f)           	Cs(r)           
0.02            	9.37573625e-03	4.68786812e-03	4.68786812e-03	-3.60636980e-01	-1.03120285e-01	-2.57516695e-01	7.71982047e-02	1.66828116e-19	4.33714927e-21	0.00000000e+00	4.33714927e-21	-4.33714927e-21
0.04            	1.62256457e-02	8.11282283e-03	8.11282283e-03	-3.69537108e-01	-1.15080916e-01	-2.54456192e-01	6.96876384e-02	1.70945252e-19	7.50586892e-21	0.00000000e+00	7.50586892e-21	-7.50586892e-21
0.06            	2.11372655e-02	1.05686328e-02	1.05686328e-02	-3.80497304e-01	-1.24833451e-01	-2.55663853e-01	6.54152009e-02	1.76015362e-19	9.77794954e-21	0.00000000e+00	9.77794954e-21	-9.77794954e-21
0.08            	2.45473802e-02	1.22736901e-02	1.22736901e-02	-3.91197375e-01	-1.32321197e-01	-2.58876177e-01	6.32774902e-02	1.80965139e-19	1.13554445e-20	0.00000000e+00	1.13554445e-20	-1.13554445e-20
0.1             	2.67860701e-02	1.33930351e-02	1.33930351e-02	-4.00218530e-01	-1.37648886e-01	-2.62569644e-01	6.24603790e-02	1.85138261e-19	1.23910466e-20	0.00000000e+00	1.23910466e-20	-1.23910466e-20
0.12            	2.81714620e-02	1.40857310e-02	1.40857310e-02	-4.06494065e-01	-1.40987719e-01	-2.65506346e-01	6.22593136e-02	1.88041279e-19	1.30319191e-20	0.00000000e+00	1.30319191e-20	-1.30319191e-20
0.14            	2.90055151e-02	1.45027575e-02	1.45027575e-02	-4.09505624e-01	-1.42664539e-01	-2.66841085e-01	6.20882734e-02	1.89434405e-19	1.34177461e-20	0.00000000e+00	1.34177461e-20	-1.34177461e-20
0.16            	2.95826598e-02	1.47913299e-02	1.47913299e-02	-4.09248768e-01	-1.43182622e-01	-2.66066146e-01	6.14417617e-02	1.89315585e-19	1.36847292e-20	0.00000000e+00	1.36847292e-20	-1.36847292e-20
0.18            	3.01602268e-02	1.50801134e-02	1.50801134e-02	-4.06261796e-01	-1.43148204e-01	-2.63113592e-01	5.99826937e-02	1.87933833e-19	1.39519076e-20	0.00000000e+00	1.39519076e-20	-1.39519076e-20
0.2             	3.09260270e-02	1.54630135e-02	1.54630135e-02	-4.01769344e-01	-1.43166986e-01	-2.58602358e-01	5.77176860e-02	1.85855657e-19	1.43061614e-20	0.00000000e+00	1.43061614e-20	-1.43061614e-20
0.22            	3.18573606e-02	1.59286803e-02	1.59286803e-02	-3.97133051e-01	-1.43528536e-01	-2.53604515e-01	5.50379892e-02	1.83710940e-19	1.47369897e-20	0.00000000e+00	1.47369897e-20	-1.47369897e-20
0.24            	3.28814081e-02	1.64407040e-02	1.64407040e-02	-3.92813163e-01	-1.44227399e-01	-2.48585763e-01	5.21791820e-02	1.81712591e-19	1.52107068e-20	0.00000000e+00	1.52107068e-20	-1.52107068e-20
0.26            	3.38976545e-02	1.69488272e-02	1.69488272e-02	-3.89122919e-01	-1.45157201e-01	-2.43965718e-01	4.94042586e-02	1.80005510e-19	1.56808152e-20	0.00000000e+00	1.56808152e-20	-1.56808152e-20
0.28            	3.47841041e-02	1.73920520e-02	1.73920520e-02	-3.86477221e-01	-1.46122698e-01	-2.40354523e-01	4.71159127e-02	1.78781629e-19	1.60908805e-20	0.00000000e+00	1.60908805e-20	-1.60908805e-20
0.3             	3.55299506e-02	1.77649753e-02	1.77649753e-02	-3.84982377e-01	-1.47009895e-01	-2.37972482e-01	4.54812935e-02	1.78090125e-19	1.64359039e-20	0.00000000e+00	1.64359039e-20	-1.64359039e-20
0.32            	3.60938540e-02	1.80469270e-02	1.80469270e-02	-3.84498274e-01	-1.47767079e-01	-2.36731195e-01	4.44820581e-02	1.77866182e-19	1.66967616e-20	0.00000000e+00	1.66967616e-20	-1.66967616e-20
0.34            	3.64886092e-02	1.82443046e-02	1.82443046e-02	-3.84627266e-01	-1.48398060e-01	-2.36229205e-01	4.39155724e-02	1.77925853e-19	1.68793725e-20	0.00000000e+00	1.68793725e-20	-1.68793725e-20
0.36            	3.67893639e-02	1.83946820e-02	1.83946820e-02	-3.85033954e-01	-1.48937017e-01	-2.36096937e-01	4.35799602e-02	1.78113984e-19	1.70184995e-20	0.00000000e+00	1.70184995e-20	-1.70184995e-20
0.38            	3.70423452e-02	1.85211726e-02	1.85211726e-02	-3.85545850e-01	-1.49411906e-01	-2.36133943e-01	4.33610183e-02	1.78350783e-19	1.71355269e-20	0.00000000e+00	1.71355269e-20	-1.71355269e-20
0.4             	3.72560077e-02	1.86280038e-02	1.86280038e-02	-3.86108884e-01	-1.49834644e-01	-2.36274239e-01	4.32197974e-02	1.78611239e-19	1.72343656e-20	0.00000000e+00	1.72343656e-20	-1.72343656e-20
0.42            	3.74241724e-02	1.87120862e-02	1.87120862e-02	-3.86728057e-01	-1.50202040e-01	-2.36526017e-01	4.31619885e-02	1.78897664e-19	1.73121575e-20	0.00000000e+00	1.73121575e-20	-1.73121575e-20
0.44            	3.75501280e-02	1.87750640e-02	1.87750640e-02	-3.87419470e-01	-1.50514039e-01	-2.36905430e-01	4.31956955e-02	1.79217506e-19	1.73704236e-20	0.00000000e+00	1.73704236e-20	-1.73704236e-20
0.46            	3.76483515e-02	1.88241758e-02	1.88241758e-02	-3.88185834e-01	-1.50784024e-01	-2.37401810e-01	4.33088932e-02	1.79572021e-19	1.74158611e-20	0.00000000e+00	1.74158611e-20	-1.74158611e-20
0.48            	3.77282162e-02	1.88641081e-02	1.88641081e-02	-3.89026850e-01	-1.51027692e-01	-2.37999158e-01	4.34857330e-02	1.79961069e-19	1.74528060e-20	0.00000000e+00	1.74528060e-20	-1.74528060e-20
0.5             	3.77850537e-02	1.88925268e-02	1.88925268e-02	-3.89934004e-01	-1.51246708e-01	-2.38687296e-01	4.37202940e-02	1.80380712e-19	1.74790986e-20	0.00000000e+00	1.74790986e-20	-1.74790986e-20
0.52            	3.78164498e-02	1.89082249e-02	1.89082249e-02	-3.90885665e-01	-1.51441602e-01	-2.39444063e-01	4.40012308e-02	1.80820944e-19	1.74936222e-20	0.00000000e+00	1.74936222e-20	-1.74936222e-20
0.54            	3.78241029e-02	1.89120514e-02	1.89120514e-02	-3.91850178e-01	-1.51613885e-01	-2.40236293e-01	4.43112041e-02	1.81267121e-19	1.74971624e-20	0.00000000e+00	1.74971624e-20	-1.74971624e-20
0.56            	3.78116322e-02	1.89058161e-02	1.89058161e-02	-3.92790959e-01	-1.51766568e-01	-2.41024390e-01	4.46289111e-02	1.81702319e-19	1.74913936e-20	0.00000000e+00	1.74913936e-20	-1.74913936e-20
0.58            	3.77832543e-02	1.88916271e-02	1.88916271e-02	-3.93673469e-01	-1.51903433e-01	-2.41770036e-01	4.49333013e-02	1.82110562e-19	1.74782662e-20	0.00000000e+00	1.74782662e-20	-1.74782662e-20
0.6             	3.77435927e-02	1.88717963e-02	1.88717963e-02	-3.94489009e-01	-1.52026902e-01	-2.42462107e-01	4.52176021e-02	1.82487825e-19	1.74599190e-20	0.00000000e+00	1.74599190e-20	-1.74599190e-20
0.62            	3.76953871e-02	1.88476936e-02	1.88476936e-02	-3.95257337e-01	-1.52134487e-01	-2.43122850e-01	4.54941815e-02	1.82843248e-19	1.74376195e-20	0.00000000e+00	1.74376195e-20	-1.74376195e-20
0.64            	3.76404213e-02	1.88202106e-02	1.88202106e-02	-3.96009731e-01	-1.52224148e-01	-2.43785583e-01	4.57807179e-02	1.83191300e-19	1.74121926e-20	0.00000000e+00	1.74121926e-20	-1.74121926e-20
0.66            	3.75794894e-02	1.87897447e-02	1.87897447e-02	-3.96747561e-01	-1.52295809e-01	-2.44451752e-01	4.60779720e-02	1.83532616e-19	1.73840060e-20	0.00000000e+00	1.73840060e-20	-1.73840060e-20
0.68            	3.75164589e-02	1.87582294e-02	1.87582294e-02	-3.97453753e-01	-1.52354577e-01	-2.45099176e-01	4.63722995e-02	1.83859295e-19	1.73548485e-20	0.00000000e+00	1.73548485e-20	-1.73548485e-20
0.7             	3.74555444e-02	1.87277722e-02	1.87277722e-02	-3.98116440e-01	-1.52406842e-01	-2.45709597e-01	4.66513774e-02	1.84165849e-19	1.73266699e-20	0.00000000e+00	1.73266699e-20	-1.73266699e-20
0.72            	3.73982158e-02	1.86991079e-02	1.86991079e-02	-3.98741949e-01	-1.52456301e-01	-2.46285648e-01	4.69146736e-02	1.84455205e-19	1.73001501e-20	0.00000000e+00	1.73001501e-20	-1.73001501e-20
0.74            	3.73424303e-02	1.86712152e-02	1.86712152e-02	-3.99345717e-01	-1.52502717e-01	-2.46843000e-01	4.71701412e-02	1.84734504e-19	1.72743442e-20	0.00000000e+00	1.72743442e-20	-1.72743442e-20
0.76            	3.72844260e-02	1.86422130e-02	1.86422130e-02	-3.99936612e-01	-1.52542912e-01	-2.47393700e-01	4.74253938e-02	1.85007848e-19	1.72475118e-20	0.00000000e+00	1.72475118e-20	-1.72475118e-20
0.78            	3.72210233e-02	1.86105117e-02	1.86105117e-02	-4.00510303e-01	-1.52572145e-01	-2.47938158e-01	4.76830067e-02	1.85273233e-19	1.72181821e-20	0.00000000e+00	1.72181821e-20	-1.72181821e-20
0.8             	3.71511128e-02	1.85755564e-02	1.85755564e-02	-4.01053656e-01	-1.52585839e-01	-2.48467818e-01	4.79409895e-02	1.85524585e-19	1.71858420e-20	0.00000000e+00	1.71858420e-20	-1.71858420e-20
0.82            	3.70759716e-02	1.85379858e-02	1.85379858e-02	-4.01552785e-01	-1.52581581e-01	-2.48971204e-01	4.81948114e-02	1.85755478e-19	1.71510822e-20	0.00000000e+00	1.71510822e-20	-1.71510822e-20
0.84            	3.69988411e-02	1.84994205e-02	1.84994205e-02	-4.01998758e-01	-1.52560697e-01	-2.49438062e-01	4.84386825e-02	1.85961782e-19	1.71154022e-20	0.00000000e+00	1.71154022e-20	-1.71154022e-20
0.86            	3.69249956e-02	1.84624978e-02	1.84624978e-02	-4.02390468e-01	-1.52528848e-01	-2.49861620e-01	4.86663863e-02	1.86142984e-19	1.70812418e-20	0.00000000e+00	1.70812418e-20	-1.70812418e-20
0.88            	3.68602526e-02	1.84301263e-02	1.84301263e-02	-4.02736193e-01	-1.52494956e-01	-2.50241237e-01	4.88731402e-02	1.86302914e-19	1.70512922e-20	0.00000000e+00	1.70512922e-20	-1.70512922e-20
0.9             	3.68069214e-02	1.84034607e-02	1.84034607e-02	-4.03050456e-01	-1.52467403e-01	-2.50583053e-01	4.90578247e-02	1.86448290e-19	1.70266215e-20	0.00000000e+00	1.70266215e-20	-1.70266215e-20
0.92            	3.67615618e-02	1.83807809e-02	1.83807809e-02	-4.03346203e-01	-1.52449391e-01	-2.50896812e-01	4.92237108e-02	1.86585101e-19	1.70056385e-20	0.00000000e+00	1.70056385e-20	-1.70056385e-20
0.94            	3.67188205e-02	1.83594102e-02	1.83594102e-02	-4.03631598e-01	-1.52438082e-01	-2.51193516e-01	4.93777167e-02	1.86717122e-19	1.69858666e-20	0.00000000e+00	1.69858666e-20	-1.69858666e-20
0.96            	3.66757502e-02	1.83378751e-02	1.83378751e-02	-4.03911222e-01	-1.52427804e-01	-2.51483418e-01	4.95278073e-02	1.86846474e-19	1.69659427e-20	0.00000000e+00	1.69659427e-20	-1.69659427e-20
0.98            	3.66323688e-02	1.83161844e-02	1.83161844e-02	-4.04185842e-01	-1.52414020e-01	-2.51771822e-01	4.96789006e-02	1.86973512e-19	1.69458747e-20	0.00000000e+00	1.69458747e-20	-1.69458747e-20
1               	3.65902916e-02	1.82951458e-02	1.82951458e-02	-4.04451322e-01	-1.52395413e-01	-2.52055909e-01	4.98302482e-02	1.87096321e-19	1.69264101e-20	0.00000000e+00	1.69264101e-20	-1.69264101e-20
1.02            	3.65510760e-02	1.82755380e-02	1.82755380e-02	-4.04699706e-01	-1.52373252e-01	-2.52326454e-01	4.99766012e-02	1.87211222e-19	1.69082693e-20	0.00000000e+00	1.69082693e-20	-1.69082693e-20
1.04            	3.65152645e-02	1.82576322e-02	1.82576322e-02	-4.04921549e-01	-1.52349545e-01	-2.52572004e-01	5.01112292e-02	1.87313844e-19	1.68917031e-20	0.00000000e+00	1.68917031e-20	-1.68917031e-20
1.06            	3.64818696e-02	1.82409348e-02	1.82409348e-02	-4.05112071e-01	-1.52325001e-01	-2.52787071e-01	5.02310350e-02	1.87401979e-19	1.68762548e-20	0.00000000e+00	1.68762548e-20	-1.68762548e-20
1.08            	3.64494924e-02	1.82247462e-02	1.82247462e-02	-4.05273225e-01	-1.52298753e-01	-2.52974472e-01	5.03378594e-02	1.87476528e-19	1.68612774e-20	0.00000000e+00	1.68612774e-20	-1.68612774e-20
1.1             	3.64188553e-02	1.82094277e-02	1.82094277e-02	-4.05405832e-01	-1.52271139e-01	-2.53134693e-01	5.04317772e-02	1.87537870e-19	1.68471049e-20	0.00000000e+00	1.68471049e-20	-1.68471049e-20
1.12            	3.63923879e-02	1.81961939e-02	1.81961939e-02	-4.05510434e-01	-1.52244467e-01	-2.53265966e-01	5.05107496e-02	1.87586258e-19	1.68348612e-20	0.00000000e+00	1.68348612e-20	-1.68348612e-20
1.14            	3.63724434e-02	1.81862217e-02	1.81862217e-02	-4.05590135e-01	-1.52222073e-01	-2.53368063e-01	5.05729950e-02	1.87623128e-19	1.68256350e-20	0.00000000e+00	1.68256350e-20	-1.68256350e-20
1.16            	3.63596830e-02	1.81798415e-02	1.81798415e-02	-4.05651622e-01	-1.52206672e-01	-2.53444951e-01	5.06191394e-02	1.87651571e-19	1.68197322e-20	0.00000000e+00	1.68197322e-20	-1.68197322e-20
1.18            	3.63524504e-02	1.81762252e-02	1.81762252e-02	-4.05703925e-01	-1.52198893e-01	-2.53505032e-01	5.06530698e-02	1.87675766e-19	1.68163864e-20	0.00000000e+00	1.68163864e-20	-1.68163864e-20
1.2             	3.63475667e-02	1.81737834e-02	1.81737834e-02	-4.05755710e-01	-1.52196807e-01	-2.53558903e-01	5.06810483e-02	1.87699721e-19	1.68141273e-20	0.00000000e+00	1.68141273e-20	-1.68141273e-20
1.22            	3.63420756e-02	1.81710378e-02	1.81710378e-02	-4.05812472e-01	-1.52196850e-01	-2.53615622e-01	5.07093858e-02	1.87725979e-19	1.68115871e-20	0.00000000e+00	1.68115871e-20	-1.68115871e-20
1.24            	3.63345690e-02	1.81672845e-02	1.81672845e-02	-4.05874857e-01	-1.52195533e-01	-2.53679323e-01	5.07418951e-02	1.87754838e-19	1.68081146e-20	0.00000000e+00	1.68081146e-20	-1.68081146e-20
1.26            	3.63252708e-02	1.81626354e-02	1.81626354e-02	-4.05939030e-01	-1.52190748e-01	-2.53748282e-01	5.07787667e-02	1.87784524e-19	1.68038134e-20	0.00000000e+00	1.68038134e-20	-1.68038134e-20
1.28            	3.63154226e-02	1.81577113e-02	1.81577113e-02	-4.05998159e-01	-1.52182229e-01	-2.53815931e-01	5.08168511e-02	1.87811877e-19	1.67992576e-20	0.00000000e+00	1.67992576e-20	-1.67992576e-20
1.3             	3.63067653e-02	1.81533826e-02	1.81533826e-02	-4.06043387e-01	-1.52171560e-01	-2.53871827e-01	5.08501337e-02	1.87832799e-19	1.67952528e-20	0.00000000e+00	1.67952528e-20	-1.67952528e-20
1.32            	3.63007734e-02	1.81503867e-02	1.81503867e-02	-4.06067094e-01	-1.52161310e-01	-2.53905784e-01	5.08722371e-02	1.87843766e-19	1.67924810e-20	0.00000000e+00	1.67924810e-20	-1.67924810e-20
1.34            	3.62979866e-02	1.81489933e-02	1.81489933e-02	-4.06067933e-01	-1.52153635e-01	-2.53914298e-01	5.08803314e-02	1.87844154e-19	1.67911919e-20	0.00000000e+00	1.67911919e-20	-1.67911919e-20
1.36            	3.62978261e-02	1.81489130e-02	1.81489130e-02	-4.06052535e-01	-1.52149372e-01	-2.53903163e-01	5.08768954e-02	1.87837031e-19	1.67911176e-20	0.00000000e+00	1.67911176e-20	-1.67911176e-20
1.38            	3.62990349e-02	1.81495174e-02	1.81495174e-02	-4.06031910e-01	-1.52148020e-01	-2.53883890e-01	5.08679353e-02	1.87827490e-19	1.67916768e-20	0.00000000e+00	1.67916768e-20	-1.67916768e-20
1.4             	3.63005523e-02	1.81502762e-02	1.81502762e-02	-4.06014905e-01	-1.52148586e-01	-2.53866319e-01	5.08588667e-02	1.87819623e-19	1.67923787e-20	0.00000000e+00	1.67923787e-20	-1.67923787e-20
1.42            	3.63020553e-02	1.81510276e-02	1.81510276e-02	-4.06004618e-01	-1.52150350e-01	-2.53854268e-01	5.08519589e-02	1.87814864e-19	1.67930740e-20	0.00000000e+00	1.67930740e-20	-1.67930740e-20
1.44            	3.63036114e-02	1.81518057e-02	1.81518057e-02	-4.06000489e-01	-1.52152765e-01	-2.53847723e-01	5.08474790e-02	1.87812954e-19	1.67937938e-20	0.00000000e+00	1.67937938e-20	-1.67937938e-20
1.46            	3.63050246e-02	1.81525123e-02	1.81525123e-02	-4.06002081e-01	-1.52155036e-01	-2.53847044e-01	5.08460039e-02	1.87813691e-19	1.67944476e-20	0.00000000e+00	1.67944476e-20	-1.67944476e-20
1.48            	3.63057821e-02	1.81528911e-02	1.81528911e-02	-4.06009636e-01	-1.52156269e-01	-2.53853367e-01	5.08485490e-02	1.87817186e-19	1.67947980e-20	0.00000000e+00	1.67947980e-20	-1.67947980e-20
1.5             	3.63055292e-02	1.81527646e-02	1.81527646e-02	-4.06022145e-01	-1.52156008e-01	-2.53866136e-01	5.08550641e-02	1.87822972e-19	1.67946810e-20	0.00000000e+00	1.67946810e-20	-1.67946810e-20
1.52            	3.63046619e-02	1.81523309e-02	1.81523309e-02	-4.06034987e-01	-1.52154736e-01	-2.53880251e-01	5.08627573e-02	1.87828913e-19	1.67942798e-20	0.00000000e+00	1.67942798e-20	-1.67942798e-20
1.54            	3.63037172e-02	1.81518586e-02	1.81518586e-02	-4.06044072e-01	-1.52153166e-01	-2.53890906e-01	5.08688698e-02	1.87833116e-19	1.67938428e-20	0.00000000e+00	1.67938428e-20	-1.67938428e-20
1.56            	3.63039286e-02	1.81519643e-02	1.81519643e-02	-4.06042653e-01	-1.52152632e-01	-2.53890021e-01	5.08686948e-02	1.87832459e-19	1.67939406e-20	0.00000000e+00	1.67939406e-20	-1.67939406e-20
1.58            	3.63062486e-02	1.81531243e-02	1.81531243e-02	-4.06026408e-01	-1.52154363e-01	-2.53872045e-01	5.08588410e-02	1.87824944e-19	1.67950138e-20	0.00000000e+00	1.67950138e-20	-1.67950138e-20
1.6             	3.63099010e-02	1.81549505e-02	1.81549505e-02	-4.06001268e-01	-1.52157795e-01	-2.53843474e-01	5.08428397e-02	1.87813315e-19	1.67967034e-20	0.00000000e+00	1.67967034e-20	-1.67967034e-20
1.62            	3.63131005e-02	1.81565503e-02	1.81565503e-02	-4.05978818e-01	-1.52161218e-01	-2.53817600e-01	5.08281907e-02	1.87802930e-19	1.67981835e-20	0.00000000e+00	1.67981835e-20	-1.67981835e-20
1.64            	3.63141051e-02	1.81570526e-02	1.81570526e-02	-4.05969928e-01	-1.52162724e-01	-2.53807205e-01	5.08222405e-02	1.87798817e-19	1.67986482e-20	0.00000000e+00	1.67986482e-20	-1.67986482e-20
1.66            	3.63125713e-02	1.81562857e-02	1.81562857e-02	-4.05977032e-01	-1.52161540e-01	-2.53815492e-01	5.08269762e-02	1.87802103e-19	1.67979387e-20	0.00000000e+00	1.67979387e-20	-1.67979387e-20
1.68            	3.63090176e-02	1.81545088e-02	1.81545088e-02	-4.05997350e-01	-1.52157856e-01	-2.53839494e-01	5.08408192e-02	1.87811503e-19	1.67962947e-20	0.00000000e+00	1.67962947e-20	-1.67962947e-20
1.7             	3.63048857e-02	1.81524429e-02	1.81524429e-02	-4.06022701e-01	-1.52152793e-01	-2.53869908e-01	5.08585578e-02	1.87823230e-19	1.67943833e-20	0.00000000e+00	1.67943833e-20	-1.67943833e-20
1.72            	3.63040361e-02	1.81520180e-02	1.81520180e-02	-4.06031081e-01	-1.52150380e-01	-2.53880700e-01	5.08651599e-02	1.87827106e-19	1.67939903e-20	0.00000000e+00	1.67939903e-20	-1.67939903e-20
1.74            	3.63075951e-02	1.81537976e-02	1.81537976e-02	-4.06015744e-01	-1.52152606e-01	-2.53863137e-01	5.08552656e-02	1.87820011e-19	1.67956367e-20	0.00000000e+00	1.67956367e-20	-1.67956367e-20
1.76            	3.63132698e-02	1.81566349e-02	1.81566349e-02	-4.05988822e-01	-1.52158032e-01	-2.53830790e-01	5.08363790e-02	1.87807557e-19	1.67982618e-20	0.00000000e+00	1.67982618e-20	-1.67982618e-20
1.78            	3.63180900e-02	1.81590450e-02	1.81590450e-02	-4.05965883e-01	-1.52164138e-01	-2.53801745e-01	5.08188035e-02	1.87796946e-19	1.68004916e-20	0.00000000e+00	1.68004916e-20	-1.68004916e-20
1.8             	3.63200895e-02	1.81600447e-02	1.81600447e-02	-4.05956928e-01	-1.52168577e-01	-2.53788351e-01	5.08098867e-02	1.87792804e-19	1.68014165e-20	0.00000000e+00	1.68014165e-20	-1.68014165e-20
1.82            	3.63186501e-02	1.81593250e-02	1.81593250e-02	-4.05964898e-01	-1.52169663e-01	-2.53795235e-01	5.08127859e-02	1.87796491e-19	1.68007506e-20	0.00000000e+00	1.68007506e-20	-1.68007506e-20
1.84            	3.63143733e-02	1.81571867e-02	1.81571867e-02	-4.05986585e-01	-1.52166901e-01	-2.53819685e-01	5.08263920e-02	1.87806523e-19	1.67987722e-20	0.00000000e+00	1.67987722e-20	-1.67987722e-20
1.86            	3.63082438e-02	1.81541219e-02	1.81541219e-02	-4.06017346e-01	-1.52160337e-01	-2.53857009e-01	5.08483361e-02	1.87820753e-19	1.67959368e-20	0.00000000e+00	1.67959368e-20	-1.67959368e-20
1.88            	3.63034342e-02	1.81517171e-02	1.81517171e-02	-4.06040541e-01	-1.52152888e-01	-2.53887653e-01	5.08673829e-02	1.87831482e-19	1.67937119e-20	0.00000000e+00	1.67937119e-20	-1.67937119e-20
1.9             	3.63024100e-02	1.81512050e-02	1.81512050e-02	-4.06043441e-01	-1.52147969e-01	-2.53895472e-01	5.08737518e-02	1.87832824e-19	1.67932381e-20	0.00000000e+00	1.67932381e-20	-1.67932381e-20
1.92            	3.63055558e-02	1.81527779e-02	1.81527779e-02	-4.06024559e-01	-1.52147792e-01	-2.53876767e-01	5.08644878e-02	1.87824089e-19	1.67946933e-20	0.00000000e+00	1.67946933e-20	-1.67946933e-20
1.94            	3.63112576e-02	1.81556288e-02	1.81556288e-02	-4.05992932e-01	-1.52152679e-01	-2.53840254e-01	5.08437875e-02	1.87809459e-19	1.67973309e-20	0.00000000e+00	1.67973309e-20	-1.67973309e-20
1.96            	3.63170426e-02	1.81585213e-02	1.81585213e-02	-4.05961755e-01	-1.52160962e-01	-2.53800793e-01	5.08199156e-02	1.87795036e-19	1.68000070e-20	0.00000000e+00	1.68000070e-20	-1.68000070e-20
1.98            	3.63206429e-02	1.81603215e-02	1.81603215e-02	-4.05942764e-01	-1.52169426e-01	-2.53773338e-01	5.08019558e-02	1.87786251e-19	1.68016725e-20	0.00000000e+00	1.68016725e-20	-1.68016725e-20
2               	3.63203304e-02	1.81601652e-02	1.81601652e-02	-4.05944891e-01	-1.52174233e-01	-2.53770658e-01	5.07982126e-02	1.87787235e-19	1.68015279e-20	0.00000000e+00	1.68015279e-20	-1.68015279e-20
2.02            	3.63153149e-02	1.81576574e-02	1.81576574e-02	-4.05972396e-01	-1.52172211e-01	-2.53800185e-01	5.08139868e-02	1.87799959e-19	1.67992078e-20	0.00000000e+00	1.67992078e-20	-1.67992078e-20
2.04            	3.63070744e-02	1.81535372e-02	1.81535372e-02	-4.06017375e-01	-1.52163244e-01	-2.53854132e-01	5.08454441e-02	1.87820766e-19	1.67953958e-20	0.00000000e+00	1.67953958e-20	-1.67953958e-20
2.06            	3.62996641e-02	1.81498320e-02	1.81498320e-02	-4.06057689e-01	-1.52151585e-01	-2.53906103e-01	5.08772590e-02	1.87839415e-19	1.67919679e-20	0.00000000e+00	1.67919679e-20	-1.67919679e-20
2.08            	3.62971939e-02	1.81485969e-02	1.81485969e-02	-4.06070758e-01	-1.52143325e-01	-2.53927433e-01	5.08920542e-02	1.87845461e-19	1.67908252e-20	0.00000000e+00	1.67908252e-20	-1.67908252e-20
2.1             	3.63009605e-02	1.81504802e-02	1.81504802e-02	-4.06049394e-01	-1.52142569e-01	-2.53906825e-01	5.08821283e-02	1.87835578e-19	1.67925675e-20	0.00000000e+00	1.67925675e-20	-1.67925675e-20
2.12            	3.63088683e-02	1.81544341e-02	1.81544341e-02	-4.06004949e-01	-1.52149582e-01	-2.53855367e-01	5.08528924e-02	1.87815018e-19	1.67962256e-20	0.00000000e+00	1.67962256e-20	-1.67962256e-20
2.14            	3.63169088e-02	1.81584544e-02	1.81584544e-02	-4.05959185e-01	-1.52160910e-01	-2.53798275e-01	5.08186822e-02	1.87793847e-19	1.67999451e-20	0.00000000e+00	1.67999451e-20	-1.67999451e-20
2.16            	3.63213029e-02	1.81606515e-02	1.81606515e-02	-4.05932636e-01	-1.52171094e-01	-2.53761542e-01	5.07952236e-02	1.87781566e-19	1.68019778e-20	0.00000000e+00	1.68019778e-20	-1.68019778e-20
2.18            	3.63200343e-02	1.81600171e-02	1.81600171e-02	-4.05936431e-01	-1.52175180e-01	-2.53761252e-01	5.07930359e-02	1.87783322e-19	1.68013910e-20	0.00000000e+00	1.68013910e-20	-1.68013910e-20
2.2             	3.63132362e-02	1.81566181e-02	1.81566181e-02	-4.05970363e-01	-1.52170595e-01	-2.53799768e-01	5.08145867e-02	1.87799018e-19	1.67982462e-20	0.00000000e+00	1.67982462e-20	-1.67982462e-20
2.22            	3.63043739e-02	1.81521869e-02	1.81521869e-02	-4.06016053e-01	-1.52159565e-01	-2.53856488e-01	5.08484618e-02	1.87820154e-19	1.67941466e-20	0.00000000e+00	1.67941466e-20	-1.67941466e-20
2.24            	3.62986738e-02	1.81493369e-02	1.81493369e-02	-4.06045378e-01	-1.52148486e-01	-2.53896892e-01	5.08742033e-02	1.87833720e-19	1.67915097e-20	0.00000000e+00	1.67915097e-20	-1.67915097e-20
2.26            	3.62988707e-02	1.81494353e-02	1.81494353e-02	-4.06043932e-01	-1.52142820e-01	-2.53901111e-01	5.08791455e-02	1.87833051e-19	1.67916008e-20	0.00000000e+00	1.67916008e-20	-1.67916008e-20
2.28            	3.63041027e-02	1.81520513e-02	1.81520513e-02	-4.06016874e-01	-1.52144477e-01	-2.53872397e-01	5.08639602e-02	1.87820534e-19	1.67940211e-20	0.00000000e+00	1.67940211e-20	-1.67940211e-20
2.3             	3.63109329e-02	1.81554665e-02	1.81554665e-02	-4.05983033e-01	-1.52151412e-01	-2.53831621e-01	5.08401043e-02	1.87804880e-19	1.67971808e-20	0.00000000e+00	1.67971808e-20	-1.67971808e-20
2.32            	3.63160714e-02	1.81580357e-02	1.81580357e-02	-4.05959701e-01	-1.52159871e-01	-2.53799830e-01	5.08199792e-02	1.87794086e-19	1.67995578e-20	0.00000000e+00	1.67995578e-20	-1.67995578e-20
2.34            	3.63173394e-02	1.81586697e-02	1.81586697e-02	-4.05957667e-01	-1.52165875e-01	-2.53791791e-01	5.08129579e-02	1.87793145e-19	1.68001444e-20	0.00000000e+00	1.68001444e-20	-1.68001444e-20
2.36            	3.63155550e-02	1.81577775e-02	1.81577775e-02	-4.05971065e-01	-1.52167921e-01	-2.53803144e-01	5.08176116e-02	1.87799343e-19	1.67993189e-20	0.00000000e+00	1.67993189e-20	-1.67993189e-20
2.38            	3.63133271e-02	1.81566635e-02	1.81566635e-02	-4.05984630e-01	-1.52167173e-01	-2.53817457e-01	5.08251417e-02	1.87805618e-19	1.67982883e-20	0.00000000e+00	1.67982883e-20	-1.67982883e-20
2.4             	3.63119650e-02	1.81559825e-02	1.81559825e-02	-4.05991340e-01	-1.52164809e-01	-2.53826532e-01	5.08308616e-02	1.87808722e-19	1.67976582e-20	0.00000000e+00	1.67976582e-20	-1.67976582e-20
2.42            	3.63115188e-02	1.81557594e-02	1.81557594e-02	-4.05991860e-01	-1.52161963e-01	-2.53829897e-01	5.08339671e-02	1.87808963e-19	1.67974518e-20	0.00000000e+00	1.67974518e-20	-1.67974518e-20
2.44            	3.63111218e-02	1.81555609e-02	1.81555609e-02	-4.05992083e-01	-1.52159171e-01	-2.53832912e-01	5.08368705e-02	1.87809066e-19	1.67972681e-20	0.00000000e+00	1.67972681e-20	-1.67972681e-20
2.46            	3.63104121e-02	1.81552060e-02	1.81552060e-02	-4.05994758e-01	-1.52156932e-01	-2.53837826e-01	5.08404467e-02	1.87810303e-19	1.67969398e-20	0.00000000e+00	1.67969398e-20	-1.67969398e-20
2.48            	3.63082049e-02	1.81541024e-02	1.81541024e-02	-4.06007012e-01	-1.52154271e-01	-2.53852741e-01	5.08492350e-02	1.87815972e-19	1.67959188e-20	0.00000000e+00	1.67959188e-20	-1.67959188e-20
2.5             	3.63051046e-02	1.81525523e-02	1.81525523e-02	-4.06025637e-01	-1.52150939e-01	-2.53874698e-01	5.08618797e-02	1.87824588e-19	1.67944846e-20	0.00000000e+00	1.67944846e-20	-1.67944846e-20
2.52            	3.63059100e-02	1.81529550e-02	1.81529550e-02	-4.06023448e-01	-1.52151013e-01	-2.53872436e-01	5.08607114e-02	1.87823575e-19	1.67948572e-20	0.00000000e+00	1.67948572e-20	-1.67948572e-20
2.54            	3.63112729e-02	1.81556365e-02	1.81556365e-02	-4.05996433e-01	-1.52155513e-01	-2.53840919e-01	5.08427030e-02	1.87811078e-19	1.67973380e-20	0.00000000e+00	1.67973380e-20	-1.67973380e-20
2.56            	3.63180444e-02	1.81590222e-02	1.81590222e-02	-4.05961726e-01	-1.52162416e-01	-2.53799310e-01	5.08184472e-02	1.87795023e-19	1.68004705e-20	0.00000000e+00	1.68004705e-20	-1.68004705e-20
2.58            	3.63223672e-02	1.81611836e-02	1.81611836e-02	-4.05940146e-01	-1.52168712e-01	-2.53771435e-01	5.08013615e-02	1.87785040e-19	1.68024702e-20	0.00000000e+00	1.68024702e-20	-1.68024702e-20
2.6             	3.63226055e-02	1.81613028e-02	1.81613028e-02	-4.05939869e-01	-1.52172251e-01	-2.53767618e-01	5.07976837e-02	1.87784912e-19	1.68025804e-20	0.00000000e+00	1.68025804e-20	-1.68025804e-20
2.62            	3.63194196e-02	1.81597098e-02	1.81597098e-02	-4.05956445e-01	-1.52172509e-01	-2.53783936e-01	5.08057136e-02	1.87792580e-19	1.68011066e-20	0.00000000e+00	1.68011066e-20	-1.68011066e-20
2.64            	3.63108542e-02	1.81554271e-02	1.81554271e-02	-4.06001123e-01	-1.52165867e-01	-2.53835256e-01	5.08346944e-02	1.87813248e-19	1.67971443e-20	0.00000000e+00	1.67971443e-20	-1.67971443e-20
2.66            	3.62990768e-02	1.81495384e-02	1.81495384e-02	-4.06062802e-01	-1.52152435e-01	-2.53910367e-01	5.08789663e-02	1.87841780e-19	1.67916962e-20	0.00000000e+00	1.67916962e-20	-1.67916962e-20
2.68            	3.62929822e-02	1.81464911e-02	1.81464911e-02	-4.06092842e-01	-1.52140783e-01	-2.53952058e-01	5.09056376e-02	1.87855676e-19	1.67888769e-20	0.00000000e+00	1.67888769e-20	-1.67888769e-20
2.7             	3.62965698e-02	1.81482849e-02	1.81482849e-02	-4.06070125e-01	-1.52137561e-01	-2.53932564e-01	5.08975012e-02	1.87845168e-19	1.67905365e-20	0.00000000e+00	1.67905365e-20	-1.67905365e-20
2.72            	3.63064345e-02	1.81532172e-02	1.81532172e-02	-4.06014464e-01	-1.52143272e-01	-2.53871192e-01	5.08639599e-02	1.87819419e-19	1.67950998e-20	0.00000000e+00	1.67950998e-20	-1.67950998e-20
2.74            	3.63162537e-02	1.81581268e-02	1.81581268e-02	-4.05960818e-01	-1.52154509e-01	-2.53806309e-01	5.08259000e-02	1.87794603e-19	1.67996421e-20	0.00000000e+00	1.67996421e-20	-1.67996421e-20
2.76            	3.63222373e-02	1.81611186e-02	1.81611186e-02	-4.05928809e-01	-1.52166855e-01	-2.53761954e-01	5.07975493e-02	1.87779796e-19	1.68024101e-20	0.00000000e+00	1.68024101e-20	-1.68024101e-20
2.78            	3.63235543e-02	1.81617771e-02	1.81617771e-02	-4.05921290e-01	-1.52176725e-01	-2.53744565e-01	5.07839199e-02	1.87776318e-19	1.68030193e-20	0.00000000e+00	1.68030193e-20	-1.68030193e-20
2.8             	3.63180377e-02	1.81590188e-02	1.81590188e-02	-4.05949747e-01	-1.52178599e-01	-2.53771148e-01	5.07962744e-02	1.87789482e-19	1.68004673e-20	0.00000000e+00	1.68004673e-20	-1.68004673e-20
2.82            	3.63038936e-02	1.81519468e-02	1.81519468e-02	-4.06025062e-01	-1.52166441e-01	-2.53858621e-01	5.08460896e-02	1.87824322e-19	1.67939244e-20	0.00000000e+00	1.67939244e-20	-1.67939244e-20
2.84            	3.62882531e-02	1.81441265e-02	1.81441265e-02	-4.06108626e-01	-1.52145194e-01	-2.53963432e-01	5.09091191e-02	1.87862978e-19	1.67866892e-20	0.00000000e+00	1.67866892e-20	-1.67866892e-20
2.86            	3.62827351e-02	1.81413675e-02	1.81413675e-02	-4.06136597e-01	-1.52129187e-01	-2.54007409e-01	5.09391112e-02	1.87875917e-19	1.67841366e-20	0.00000000e+00	1.67841366e-20	-1.67841366e-20
2.88            	3.62897310e-02	1.81448655e-02	1.81448655e-02	-4.06096630e-01	-1.52126560e-01	-2.53970070e-01	5.09217547e-02	1.87857429e-19	1.67873729e-20	0.00000000e+00	1.67873729e-20	-1.67873729e-20
2.9             	3.63037175e-02	1.81518588e-02	1.81518588e-02	-4.06019763e-01	-1.52137278e-01	-2.53882484e-01	5.08726032e-02	1.87821870e-19	1.67938430e-20	0.00000000e+00	1.67938430e-20	-1.67938430e-20