# Field minima and maxima
# Time          	field           	min             	location(min)   	processor       	max             	location(max)   	processor       
0.02            	p               	5.11274797e-01	(9.96094498e-01 4.43649347e-03 1.13552554e-19)	14	1.79700589e+00	(4.96092944e-01 9.09512224e-02 -1.07850366e-19)	2
0.04            	p               	3.10500932e-01	(5.35157052e-01 8.54582238e-02 3.39696596e-19)	2	1.87973459e+00	(2.73429996e-02 8.55624250e-03 1.02607584e-18)	3
0.06            	p               	3.18344409e-01	(5.35157052e-01 8.54582238e-02 3.39696596e-19)	2	1.94590413e+00	(2.73429996e-02 8.55624250e-03 1.02607584e-18)	3
0.08            	p               	3.21839778e-01	(5.35157052e-01 8.54582238e-02 3.39696596e-19)	2	1.94647135e+00	(2.73429996e-02 8.55624250e-03 1.02607584e-18)	3
0.1             	p               	3.16500988e-01	(5.35157052e-01 8.54582238e-02 3.39696596e-19)	2	1.94512510e+00	(2.73429996e-02 8.55624250e-03 1.02607584e-18)	3
0.12            	p               	3.14567147e-01	(5.35157052e-01 8.54582238e-02 3.39696596e-19)	2	1.94325689e+00	(2.73429996e-02 8.55624250e-03 1.02607584e-18)	3
0.14            	p               	3.14245710e-01	(5.35157052e-01 8.54582238e-02 3.39696596e-19)	2	1.94823582e+00	(2.73429996e-02 8.55624250e-03 1.02607584e-18)	3
0.16            	p               	3.17168582e-01	(5.35157052e-01 8.54582238e-02 3.39696596e-19)	2	1.94312817e+00	(2.73429996e-02 8.55624250e-03 1.02607584e-18)	3
0.18            	p               	3.20174808e-01	(5.35157052e-01 8.54582238e-02 3.39696596e-19)	2	1.94710943e+00	(2.73429996e-02 8.55624250e-03 1.02607584e-18)	3
0.2             	p               	3.19317045e-01	(5.35157052e-01 8.54582238e-02 3.39696596e-19)	2	1.94473135e+00	(2.73429996e-02 8.55624250e-03 1.02607584e-18)	3
0.22            	p               	3.14465756e-01	(5.35157052e-01 8.54582238e-02 3.39696596e-19)	2	1.94473698e+00	(2.73429996e-02 8.55624250e-03 1.02607584e-18)	3
0.24            	p               	3.08918829e-01	(5.35157052e-01 8.54582238e-02 3.39696596e-19)	2	1.94575746e+00	(2.73429996e-02 8.55624250e-03 1.02607584e-18)	3
0.26            	p               	3.07092275e-01	(5.35157052e-01 8.54582238e-02 3.39696596e-19)	2	1.94206867e+00	(2.73429996e-02 8.55624250e-03 1.02607584e-18)	3
0.28            	p               	3.08879579e-01	(5.35157052e-01 8.54582238e-02 3.39696596e-19)	2	1.94805993e+00	(2.73429996e-02 8.55624250e-03 1.02607584e-18)	3
0.3             	p               	3.14517880e-01	(5.35157052e-01 8.54582238e-02 3.39696596e-19)	2	1.94365671e+00	(2.73429996e-02 8.55624250e-03 1.02607584e-18)	3
0.32            	p               	3.20557921e-01	(5.35157052e-01 8.54582238e-02 3.39696596e-19)	2	1.94829274e+00	(2.73429996e-02 8.55624250e-03 1.02607584e-18)	3
0.34            	p               	3.22552725e-01	(5.35157052e-01 8.54582238e-02 3.39696596e-19)	2	1.94447287e+00	(2.73429996e-02 8.55624250e-03 1.02607584e-18)	3
0.36            	p               	3.21027550e-01	(5.35157052e-01 8.54582238e-02 3.39696596e-19)	2	1.94288803e+00	(2.73429996e-02 8.55624250e-03 1.02607584e-18)	3
0.38            	p               	3.20051623e-01	(5.35157052e-01 8.54582238e-02 3.39696596e-19)	2	1.94741549e+00	(2.73429996e-02 8.55624250e-03 1.02607584e-18)	3
0.4             	p               	3.21295390e-01	(5.35157052e-01 8.54582238e-02 3.39696596e-19)	2	1.94388033e+00	(2.73429996e-02 8.55624250e-03 1.02607584e-18)	3
0.42            	p               	3.24568550e-01	(5.35157052e-01 8.54582238e-02 3.39696596e-19)	2	1.94808263e+00	(2.73429996e-02 8.55624250e-03 1.02607584e-18)	3
0.44            	p               	3.28987180e-01	(5.35157052e-01 8.54582238e-02 3.39696596e-19)	2	1.94422255e+00	(2.73429996e-02 8.55624250e-03 1.02607584e-18)	3
0.46            	p               	3.35137268e-01	(5.35157052e-01 8.54582238e-02 3.39696596e-19)	2	1.94422706e+00	(2.73429996e-02 8.55624250e-03 1.02607584e-18)	3
0.48            	p               	3.41721873e-01	(5.35157052e-01 8.54582238e-02 3.39696596e-19)	2	1.94675315e+00	(2.73429996e-02 8.55624250e-03 1.02607584e-18)	3
0.5             	p               	3.46502541e-01	(5.35157052e-01 8.54582238e-02 3.39696596e-19)	2	1.94283427e+00	(2.73429996e-02 8.55624250e-03 1.02607584e-18)	3
0.52            	p               	3.48625276e-01	(5.35157052e-01 8.54582238e-02 3.39696596e-19)	2	1.94852657e+00	(2.73429996e-02 8.55624250e-03 1.02607584e-18)	3
0.54            	p               	3.47797310e-01	(5.35157052e-01 8.54582238e-02 3.39696596e-19)	2	1.94419858e+00	(2.73429996e-02 8.55624250e-03 1.02607584e-18)	3
0.56            	p               	3.48925341e-01	(5.35157052e-01 8.54582238e-02 3.39696596e-19)	2	1.94612732e+00	(2.73429996e-02 8.55624250e-03 1.02607584e-18)	3
0.58            	p               	3.52059973e-01	(5.35157052e-01 8.54582238e-02 3.39696596e-19)	2	1.94544363e+00	(2.73429996e-02 8.55624250e-03 1.02607584e-18)	3
0.6             	p               	3.57425530e-01	(5.35157052e-01 8.54582238e-02 3.39696596e-19)	2	1.94248038e+00	(2.73429996e-02 8.55624250e-03 1.02607584e-18)	3
0.62            	p               	3.64216607e-01	(5.35157052e-01 8.54582238e-02 3.39696596e-19)	2	1.94830846e+00	(2.73429996e-02 8.55624250e-03 1.02607584e-18)	3
0.64            	p               	3.70702988e-01	(5.35157052e-01 8.54582238e-02 3.39696596e-19)	2	1.94406411e+00	(2.73429996e-02 8.55624250e-03 1.02607584e-18)	3
0.66            	p               	3.76851543e-01	(5.35157052e-01 8.54582238e-02 3.39696596e-19)	2	1.94766130e+00	(2.73429996e-02 8.55624250e-03 1.02607584e-18)	3
0.68            	p               	3.81688642e-01	(5.35157052e-01 8.54582238e-02 3.39696596e-19)	2	1.94466869e+00	(2.73429996e-02 8.55624250e-03 1.02607584e-18)	3
0.7             	p               	3.86866378e-01	(5.35157052e-01 8.54582238e-02 3.39696596e-19)	2	1.94281540e+00	(2.73429996e-02 8.55624250e-03 1.02607584e-18)	3
0.72            	p               	3.90463823e-01	(5.35157052e-01 8.54582238e-02 3.39696596e-19)	2	1.94762629e+00	(2.73429996e-02 8.55624250e-03 1.02607584e-18)	3
0.74            	p               	3.91598753e-01	(5.35157052e-01 8.54582238e-02 3.39696596e-19)	2	1.94380233e+00	(2.73429996e-02 8.55624250e-03 1.02607584e-18)	3
0.76            	p               	3.91833282e-01	(5.35157052e-01 8.54582238e-02 3.39696596e-19)	2	1.94833879e+00	(2.73429996e-02 8.55624250e-03 1.02607584e-18)	3
0.78            	p               	3.90899325e-01	(5.35157052e-01 8.54582238e-02 3.39696596e-19)	2	1.94418526e+00	(2.73429996e-02 8.55624250e-03 1.02607584e-18)	3
0.8             	p               	3.90216830e-01	(5.35157052e-01 8.54582238e-02 3.39696596e-19)	2	1.94429134e+00	(2.73429996e-02 8.55624250e-03 1.02607584e-18)	3
0.82            	p               	3.89472085e-01	(5.35157052e-01 8.54582238e-02 3.39696596e-19)	2	1.94666157e+00	(2.73429996e-02 8.55624250e-03 1.02607584e-18)	3
0.84            	p               	3.89265071e-01	(5.35157052e-01 8.54582238e-02 3.39696596e-19)	2	1.94300798e+00	(2.73429996e-02 8.55624250e-03 1.02607584e-18)	3
0.86            	p               	3.90183112e-01	(5.35157052e-01 8.54582238e-02 3.39696596e-19)	2	1.94853710e+00	(2.73429996e-02 8.55624250e-03 1.02607584e-18)	3
0.88            	p               	3.90703629e-01	(5.35157052e-01 8.54582238e-02 3.39696596e-19)	2	1.94413748e+00	(2.73429996e-02 8.55624250e-03 1.02607584e-18)	3
0.9             	p               	3.91312131e-01	(5.27344553e-01 8.68314735e-02 -1.46568437e-19)	2	1.94619716e+00	(2.73429996e-02 8.55624250e-03 1.02607584e-18)	3
0.92            	p               	3.90589389e-01	(5.27344553e-01 8.68314735e-02 -1.46568437e-19)	2	1.94550157e+00	(2.73429996e-02 8.55624250e-03 1.02607584e-18)	3
0.94            	p               	3.89997509e-01	(5.27344553e-01 8.68314735e-02 -1.46568437e-19)	2	1.94245474e+00	(2.73429996e-02 8.55624250e-03 1.02607584e-18)	3
0.96            	p               	3.89394611e-01	(5.27344553e-01 8.68314735e-02 -1.46568437e-19)	2	1.94832597e+00	(2.73429996e-02 8.55624250e-03 1.02607584e-18)	3
0.98            	p               	3.90158126e-01	(5.27344553e-01 8.68314735e-02 -1.46568437e-19)	2	1.94411345e+00	(2.73429996e-02 8.55624250e-03 1.02607584e-18)	3
1               	p               	3.94072046e-01	(5.27344553e-01 8.68314735e-02 -1.46568437e-19)	2	1.94763120e+00	(2.73429996e-02 8.55624250e-03 1.02607584e-18)	3
1.02            	p               	3.99293720e-01	(5.27344553e-01 8.68314735e-02 -1.46568437e-19)	2	1.94464539e+00	(2.73429996e-02 8.55624250e-03 1.02607584e-18)	3
1.04            	p               	3.98586934e-01	(5.35157052e-01 8.54582238e-02 3.39696596e-19)	2	1.94282100e+00	(2.73429996e-02 8.55624250e-03 1.02607584e-18)	3
1.06            	p               	3.95470753e-01	(5.35157052e-01 8.54582238e-02 3.39696596e-19)	2	1.94764854e+00	(2.73429996e-02 8.55624250e-03 1.02607584e-18)	3
1.08            	p               	3.92436852e-01	(5.35157052e-01 8.54582238e-02 3.39696596e-19)	2	1.94376757e+00	(2.73429996e-02 8.55624250e-03 1.02607584e-18)	3
1.1             	p               	3.90837875e-01	(5.35157052e-01 8.54582238e-02 3.39696596e-19)	2	1.94834994e+00	(2.73429996e-02 8.55624250e-03 1.02607584e-18)	3
1.12            	p               	3.89405800e-01	(5.35157052e-01 8.54582238e-02 3.39696596e-19)	2	1.94419187e+00	(2.73429996e-02 8.55624250e-03 1.02607584e-18)	3
1.14            	p               	3.89193136e-01	(5.35157052e-01 8.54582238e-02 3.39696596e-19)	2	1.94430947e+00	(2.73429996e-02 8.55624250e-03 1.02607584e-18)	3
1.16            	p               	3.89199792e-01	(5.35157052e-01 8.54582238e-02 3.39696596e-19)	2	1.94662719e+00	(2.73429996e-02 8.55624250e-03 1.02607584e-18)	3
1.18            	p               	3.89876678e-01	(5.35157052e-01 8.54582238e-02 3.39696596e-19)	2	1.94301754e+00	(2.73429996e-02 8.55624250e-03 1.02607584e-18)	3
1.2             	p               	3.90066718e-01	(5.27344553e-01 8.68314735e-02 -1.46568437e-19)	2	1.94853732e+00	(2.73429996e-02 8.55624250e-03 1.02607584e-18)	3
1.22            	p               	3.88987491e-01	(5.27344553e-01 8.68314735e-02 -1.46568437e-19)	2	1.94413021e+00	(2.73429996e-02 8.55624250e-03 1.02607584e-18)	3
1.24            	p               	3.90831099e-01	(5.27344553e-01 8.68314735e-02 -1.46568437e-19)	2	1.94621091e+00	(2.73429996e-02 8.55624250e-03 1.02607584e-18)	3
1.26            	p               	3.94453461e-01	(5.27344553e-01 8.68314735e-02 -1.46568437e-19)	2	1.94550646e+00	(2.73429996e-02 8.55624250e-03 1.02607584e-18)	3
1.28            	p               	4.00422519e-01	(5.35157052e-01 8.54582238e-02 3.39696596e-19)	2	1.94244784e+00	(2.73429996e-02 8.55624250e-03 1.02607584e-18)	3
1.3             	p               	3.97984322e-01	(5.35157052e-01 8.54582238e-02 3.39696596e-19)	2	1.94831971e+00	(2.73429996e-02 8.55624250e-03 1.02607584e-18)	3
1.32            	p               	3.94229590e-01	(5.35157052e-01 8.54582238e-02 3.39696596e-19)	2	1.94411779e+00	(2.73429996e-02 8.55624250e-03 1.02607584e-18)	3
1.34            	p               	3.91754344e-01	(5.35157052e-01 8.54582238e-02 3.39696596e-19)	2	1.94764038e+00	(2.73429996e-02 8.55624250e-03 1.02607584e-18)	3
1.36            	p               	3.89958305e-01	(5.35157052e-01 8.54582238e-02 3.39696596e-19)	2	1.94463459e+00	(2.73429996e-02 8.55624250e-03 1.02607584e-18)	3
1.38            	p               	3.89601031e-01	(5.35157052e-01 8.54582238e-02 3.39696596e-19)	2	1.94282904e+00	(2.73429996e-02 8.55624250e-03 1.02607584e-18)	3
1.4             	p               	3.90473439e-01	(5.27344553e-01 8.68314735e-02 -1.46568437e-19)	2	1.94764591e+00	(2.73429996e-02 8.55624250e-03 1.02607584e-18)	3
1.42            	p               	3.89038176e-01	(5.27344553e-01 8.68314735e-02 -1.46568437e-19)	2	1.94376021e+00	(2.73429996e-02 8.55624250e-03 1.02607584e-18)	3
1.44            	p               	3.93769521e-01	(5.27344553e-01 8.68314735e-02 -1.46568437e-19)	2	1.94835215e+00	(2.73429996e-02 8.55624250e-03 1.02607584e-18)	3
1.46            	p               	3.99448888e-01	(5.35157052e-01 8.54582238e-02 3.39696596e-19)	2	1.94419147e+00	(2.73429996e-02 8.55624250e-03 1.02607584e-18)	3
1.48            	p               	3.96290710e-01	(5.35157052e-01 8.54582238e-02 3.39696596e-19)	2	1.94432693e+00	(2.73429996e-02 8.55624250e-03 1.02607584e-18)	3
1.5             	p               	3.92856267e-01	(5.35157052e-01 8.54582238e-02 3.39696596e-19)	2	1.94661433e+00	(2.73429996e-02 8.55624250e-03 1.02607584e-18)	3
1.52            	p               	3.90534823e-01	(5.35157052e-01 8.54582238e-02 3.39696596e-19)	2	1.94301267e+00	(2.73429996e-02 8.55624250e-03 1.02607584e-18)	3
1.54            	p               	3.89931848e-01	(5.35157052e-01 8.54582238e-02 3.39696596e-19)	2	1.94853837e+00	(2.73429996e-02 8.55624250e-03 1.02607584e-18)	3
1.56            	p               	3.90680350e-01	(5.35157052e-01 8.54582238e-02 3.39696596e-19)	2	1.94413020e+00	(2.73429996e-02 8.55624250e-03 1.02607584e-18)	3
1.58            	p               	3.89217343e-01	(5.27344553e-01 8.68314735e-02 -1.46568437e-19)	2	1.94622273e+00	(2.73429996e-02 8.55624250e-03 1.02607584e-18)	3
1.6             	p               	3.93252792e-01	(5.27344553e-01 8.68314735e-02 -1.46568437e-19)	2	1.94550054e+00	(2.73429996e-02 8.55624250e-03 1.02607584e-18)	3
1.62            	p               	3.99229339e-01	(5.35157052e-01 8.54582238e-02 3.39696596e-19)	2	1.94244546e+00	(2.73429996e-02 8.55624250e-03 1.02607584e-18)	3
1.64            	p               	3.95981587e-01	(5.35157052e-01 8.54582238e-02 3.39696596e-19)	2	1.94831491e+00	(2.73429996e-02 8.55624250e-03 1.02607584e-18)	3
1.66            	p               	3.92325324e-01	(5.35157052e-01 8.54582238e-02 3.39696596e-19)	2	1.94411694e+00	(2.73429996e-02 8.55624250e-03 1.02607584e-18)	3
1.68            	p               	3.90666955e-01	(5.35157052e-01 8.54582238e-02 3.39696596e-19)	2	1.94764990e+00	(2.73429996e-02 8.55624250e-03 1.02607584e-18)	3
1.7             	p               	3.89709960e-01	(5.35157052e-01 8.54582238e-02 3.39696596e-19)	2	1.94462807e+00	(2.73429996e-02 8.55624250e-03 1.02607584e-18)	3
1.72            	p               	3.90392075e-01	(5.27344553e-01 8.68314735e-02 -1.46568437e-19)	2	1.94283694e+00	(2.73429996e-02 8.55624250e-03 1.02607584e-18)	3
1.74            	p               	3.89506034e-01	(5.27344553e-01 8.68314735e-02 -1.46568437e-19)	2	1.94763941e+00	(2.73429996e-02 8.55624250e-03 1.02607584e-18)	3
1.76            	p               	3.95256829e-01	(5.27344553e-01 8.68314735e-02 -1.46568437e-19)	2	1.94375484e+00	(2.73429996e-02 8.55624250e-03 1.02607584e-18)	3
1.78            	p               	3.98521644e-01	(5.35157052e-01 8.54582238e-02 3.39696596e-19)	2	1.94835480e+00	(2.73429996e-02 8.55624250e-03 1.02607584e-18)	3
1.8             	p               	3.94553358e-01	(5.35157052e-01 8.54582238e-02 3.39696596e-19)	2	1.94418998e+00	(2.73429996e-02 8.55624250e-03 1.02607584e-18)	3
1.82            	p               	3.91744152e-01	(5.35157052e-01 8.54582238e-02 3.39696596e-19)	2	1.94434284e+00	(2.73429996e-02 8.55624250e-03 1.02607584e-18)	3
1.84            	p               	3.90224322e-01	(5.35157052e-01 8.54582238e-02 3.39696596e-19)	2	1.94660443e+00	(2.73429996e-02 8.55624250e-03 1.02607584e-18)	3
1.86            	p               	3.89969844e-01	(5.35157052e-01 8.54582238e-02 3.39696596e-19)	2	1.94300648e+00	(2.73429996e-02 8.55624250e-03 1.02607584e-18)	3
1.88            	p               	3.89233799e-01	(5.27344553e-01 8.68314735e-02 -1.46568437e-19)	2	1.94853870e+00	(2.73429996e-02 8.55624250e-03 1.02607584e-18)	3
1.9             	p               	3.90953104e-01	(5.27344553e-01 8.68314735e-02 -1.46568437e-19)	2	1.94413058e+00	(2.73429996e-02 8.55624250e-03 1.02607584e-18)	3
1.92            	p               	3.98942865e-01	(5.27344553e-01 8.68314735e-02 -1.46568437e-19)	2	1.94623696e+00	(2.73429996e-02 8.55624250e-03 1.02607584e-18)	3
1.94            	p               	3.96858243e-01	(5.35157052e-01 8.54582238e-02 3.39696596e-19)	2	1.94549245e+00	(2.73429996e-02 8.55624250e-03 1.02607584e-18)	3
1.96            	p               	3.93136458e-01	(5.35157052e-01 8.54582238e-02 3.39696596e-19)	2	1.94244367e+00	(2.73429996e-02 8.55624250e-03 1.02607584e-18)	3
1.98            	p               	3.91028659e-01	(5.35157052e-01 8.54582238e-02 3.39696596e-19)	2	1.94831095e+00	(2.73429996e-02 8.55624250e-03 1.02607584e-18)	3
2               	p               	3.89714884e-01	(5.35157052e-01 8.54582238e-02 3.39696596e-19)	2	1.94411588e+00	(2.73429996e-02 8.55624250e-03 1.02607584e-18)	3
2.02            	p               	3.91263949e-01	(5.27344553e-01 8.68314735e-02 -1.46568437e-19)	2	1.94765872e+00	(2.73429996e-02 8.55624250e-03 1.02607584e-18)	3
2.04            	p               	3.88930050e-01	(5.27344553e-01 8.68314735e-02 -1.46568437e-19)	2	1.94462239e+00	(2.73429996e-02 8.55624250e-03 1.02607584e-18)	3
2.06            	p               	3.94496183e-01	(5.27344553e-01 8.68314735e-02 -1.46568437e-19)	2	1.94284490e+00	(2.73429996e-02 8.55624250e-03 1.02607584e-18)	3
2.08            	p               	3.98745770e-01	(5.35157052e-01 8.54582238e-02 3.39696596e-19)	2	1.94763243e+00	(2.73429996e-02 8.55624250e-03 1.02607584e-18)	3
2.1             	p               	3.94810726e-01	(5.35157052e-01 8.54582238e-02 3.39696596e-19)	2	1.94374934e+00	(2.73429996e-02 8.55624250e-03 1.02607584e-18)	3
2.12            	p               	3.91996514e-01	(5.35157052e-01 8.54582238e-02 3.39696596e-19)	2	1.94835787e+00	(2.73429996e-02 8.55624250e-03 1.02607584e-18)	3
2.14            	p               	3.90092195e-01	(5.35157052e-01 8.54582238e-02 3.39696596e-19)	2	1.94418824e+00	(2.73429996e-02 8.55624250e-03 1.02607584e-18)	3
2.16            	p               	3.90139586e-01	(5.35157052e-01 8.54582238e-02 3.39696596e-19)	2	1.94435825e+00	(2.73429996e-02 8.55624250e-03 1.02607584e-18)	3
2.18            	p               	3.89070919e-01	(5.27344553e-01 8.68314735e-02 -1.46568437e-19)	2	1.94659478e+00	(2.73429996e-02 8.55624250e-03 1.02607584e-18)	3
2.2             	p               	3.91083610e-01	(5.27344553e-01 8.68314735e-02 -1.46568437e-19)	2	1.94300052e+00	(2.73429996e-02 8.55624250e-03 1.02607584e-18)	3
2.22            	p               	3.98859907e-01	(5.27344553e-01 8.68314735e-02 -1.46568437e-19)	2	1.94853880e+00	(2.73429996e-02 8.55624250e-03 1.02607584e-18)	3
2.24            	p               	3.96666389e-01	(5.35157052e-01 8.54582238e-02 3.39696596e-19)	2	1.94413057e+00	(2.73429996e-02 8.55624250e-03 1.02607584e-18)	3
2.26            	p               	3.93238327e-01	(5.35157052e-01 8.54582238e-02 3.39696596e-19)	2	1.94625199e+00	(2.73429996e-02 8.55624250e-03 1.02607584e-18)	3
2.28            	p               	3.90843169e-01	(5.35157052e-01 8.54582238e-02 3.39696596e-19)	2	1.94548411e+00	(2.73429996e-02 8.55624250e-03 1.02607584e-18)	3
2.3             	p               	3.89840447e-01	(5.35157052e-01 8.54582238e-02 3.39696596e-19)	2	1.94244226e+00	(2.73429996e-02 8.55624250e-03 1.02607584e-18)	3
2.32            	p               	3.91225821e-01	(5.27344553e-01 8.68314735e-02 -1.46568437e-19)	2	1.94830730e+00	(2.73429996e-02 8.55624250e-03 1.02607584e-18)	3
2.34            	p               	3.89061573e-01	(5.27344553e-01 8.68314735e-02 -1.46568437e-19)	2	1.94411533e+00	(2.73429996e-02 8.55624250e-03 1.02607584e-18)	3
2.36            	p               	3.94952170e-01	(5.27344553e-01 8.68314735e-02 -1.46568437e-19)	2	1.94766657e+00	(2.73429996e-02 8.55624250e-03 1.02607584e-18)	3
2.38            	p               	3.98001773e-01	(5.35157052e-01 8.54582238e-02 3.39696596e-19)	2	1.94461701e+00	(2.73429996e-02 8.55624250e-03 1.02607584e-18)	3
2.4             	p               	3.94324884e-01	(5.35157052e-01 8.54582238e-02 3.39696596e-19)	2	1.94285366e+00	(2.73429996e-02 8.55624250e-03 1.02607584e-18)	3
2.42            	p               	3.91579117e-01	(5.35157052e-01 8.54582238e-02 3.39696596e-19)	2	1.94762506e+00	(2.73429996e-02 8.55624250e-03 1.02607584e-18)	3
2.44            	p               	3.89903601e-01	(5.35157052e-01 8.54582238e-02 3.39696596e-19)	2	1.94374450e+00	(2.73429996e-02 8.55624250e-03 1.02607584e-18)	3
2.46            	p               	3.90390028e-01	(5.35157052e-01 8.54582238e-02 3.39696596e-19)	2	1.94836138e+00	(2.73429996e-02 8.55624250e-03 1.02607584e-18)	3
2.48            	p               	3.88678073e-01	(5.27344553e-01 8.68314735e-02 -1.46568437e-19)	2	1.94418662e+00	(2.73429996e-02 8.55624250e-03 1.02607584e-18)	3
2.5             	p               	3.92232081e-01	(5.27344553e-01 8.68314735e-02 -1.46568437e-19)	2	1.94437214e+00	(2.73429996e-02 8.55624250e-03 1.02607584e-18)	3
2.52            	p               	3.99513123e-01	(5.35157052e-01 8.54582238e-02 3.39696596e-19)	2	1.94658606e+00	(2.73429996e-02 8.55624250e-03 1.02607584e-18)	3
2.54            	p               	3.96053421e-01	(5.35157052e-01 8.54582238e-02 3.39696596e-19)	2	1.94299356e+00	(2.73429996e-02 8.55624250e-03 1.02607584e-18)	3
2.56            	p               	3.92761510e-01	(5.35157052e-01 8.54582238e-02 3.39696596e-19)	2	1.94853805e+00	(2.73429996e-02 8.55624250e-03 1.02607584e-18)	3
2.58            	p               	3.90393681e-01	(5.35157052e-01 8.54582238e-02 3.39696596e-19)	2	1.94413089e+00	(2.73429996e-02 8.55624250e-03 1.02607584e-18)	3
2.6             	p               	3.89993761e-01	(5.35157052e-01 8.54582238e-02 3.39696596e-19)	2	1.94626628e+00	(2.73429996e-02 8.55624250e-03 1.02607584e-18)	3
2.62            	p               	3.89831761e-01	(5.27344553e-01 8.68314735e-02 -1.46568437e-19)	2	1.94547547e+00	(2.73429996e-02 8.55624250e-03 1.02607584e-18)	3
2.64            	p               	3.89824406e-01	(5.27344553e-01 8.68314735e-02 -1.46568437e-19)	2	1.94244115e+00	(2.73429996e-02 8.55624250e-03 1.02607584e-18)	3
2.66            	p               	3.96508645e-01	(5.27344553e-01 8.68314735e-02 -1.46568437e-19)	2	1.94830408e+00	(2.73429996e-02 8.55624250e-03 1.02607584e-18)	3
2.68            	p               	3.97630693e-01	(5.35157052e-01 8.54582238e-02 3.39696596e-19)	2	1.94411366e+00	(2.73429996e-02 8.55624250e-03 1.02607584e-18)	3
2.7             	p               	3.94028753e-01	(5.35157052e-01 8.54582238e-02 3.39696596e-19)	2	1.94767517e+00	(2.73429996e-02 8.55624250e-03 1.02607584e-18)	3
2.72            	p               	3.91143229e-01	(5.35157052e-01 8.54582238e-02 3.39696596e-19)	2	1.94461187e+00	(2.73429996e-02 8.55624250e-03 1.02607584e-18)	3
2.74            	p               	3.89978736e-01	(5.35157052e-01 8.54582238e-02 3.39696596e-19)	2	1.94286197e+00	(2.73429996e-02 8.55624250e-03 1.02607584e-18)	3
2.76            	p               	3.90616940e-01	(5.35157052e-01 8.54582238e-02 3.39696596e-19)	2	1.94761764e+00	(2.73429996e-02 8.55624250e-03 1.02607584e-18)	3
2.78            	p               	3.88752413e-01	(5.27344553e-01 8.68314735e-02 -1.46568437e-19)	2	1.94374012e+00	(2.73429996e-02 8.55624250e-03 1.02607584e-18)	3
2.8             	p               	3.93477987e-01	(5.27344553e-01 8.68314735e-02 -1.46568437e-19)	2	1.94836460e+00	(2.73429996e-02 8.55624250e-03 1.02607584e-18)	3
2.82            	p               	3.98932324e-01	(5.35157052e-01 8.54582238e-02 3.39696596e-19)	2	1.94418490e+00	(2.73429996e-02 8.55624250e-03 1.02607584e-18)	3
2.84            	p               	3.95392632e-01	(5.35157052e-01 8.54582238e-02 3.39696596e-19)	2	1.94438793e+00	(2.73429996e-02 8.55624250e-03 1.02607584e-18)	3
2.86            	p               	3.92108800e-01	(5.35157052e-01 8.54582238e-02 3.39696596e-19)	2	1.94657704e+00	(2.73429996e-02 8.55624250e-03 1.02607584e-18)	3
2.88            	p               	3.90178188e-01	(5.35157052e-01 8.54582238e-02 3.39696596e-19)	2	1.94298690e+00	(2.73429996e-02 8.55624250e-03 1.02607584e-18)	3
2.9             	p               	3.90082295e-01	(5.35157052e-01 8.54582238e-02 3.39696596e-19)	2	1.94853794e+00	(2.73429996e-02 8.55624250e-03 1.02607584e-18)	3
2.92            	p               	3.89024858e-01	(5.27344553e-01 8.68314735e-02 -1.46568437e-19)	2	1.94413130e+00	(2.73429996e-02 8.55624250e-03 1.02607584e-18)	3
2.94            	p               	3.91044971e-01	(5.27344553e-01 8.68314735e-02 -1.46568437e-19)	2	1.94628018e+00	(2.73429996e-02 8.55624250e-03 1.02607584e-18)	3
2.96            	p               	3.98566342e-01	(5.27344553e-01 8.68314735e-02 -1.46568437e-19)	2	1.94546704e+00	(2.73429996e-02 8.55624250e-03 1.02607584e-18)	3
2.98            	p               	3.96503461e-01	(5.35157052e-01 8.54582238e-02 3.39696596e-19)	2	1.94243970e+00	(2.73429996e-02 8.55624250e-03 1.02607584e-18)	3
3               	p               	3.93003287e-01	(5.35157052e-01 8.54582238e-02 3.39696596e-19)	2	1.94830013e+00	(2.73429996e-02 8.55624250e-03 1.02607584e-18)	3
3.02            	p               	3.90455154e-01	(5.35157052e-01 8.54582238e-02 3.39696596e-19)	2	1.94411222e+00	(2.73429996e-02 8.55624250e-03 1.02607584e-18)	3
3.04            	p               	3.89915604e-01	(5.35157052e-01 8.54582238e-02 3.39696596e-19)	2	1.94768392e+00	(2.73429996e-02 8.55624250e-03 1.02607584e-18)	3
3.06            	p               	3.90467563e-01	(5.27344553e-01 8.68314735e-02 -1.46568437e-19)	2	1.94460634e+00	(2.73429996e-02 8.55624250e-03 1.02607584e-18)	3
3.08            	p               	3.89389367e-01	(5.27344553e-01 8.68314735e-02 -1.46568437e-19)	2	1.94287047e+00	(2.73429996e-02 8.55624250e-03 1.02607584e-18)	3
3.1             	p               	3.95359098e-01	(5.27344553e-01 8.68314735e-02 -1.46568437e-19)	2	1.94761018e+00	(2.73429996e-02 8.55624250e-03 1.02607584e-18)	3
3.12            	p               	3.98119199e-01	(5.35157052e-01 8.54582238e-02 3.39696596e-19)	2	1.94373528e+00	(2.73429996e-02 8.55624250e-03 1.02607584e-18)	3
3.14            	p               	3.94411338e-01	(5.35157052e-01 8.54582238e-02 3.39696596e-19)	2	1.94836765e+00	(2.73429996e-02 8.55624250e-03 1.02607584e-18)	3
3.16            	p               	3.91223644e-01	(5.35157052e-01 8.54582238e-02 3.39696596e-19)	2	1.94418321e+00	(2.73429996e-02 8.55624250e-03 1.02607584e-18)	3
3.18            	p               	3.90037872e-01	(5.35157052e-01 8.54582238e-02 3.39696596e-19)	2	1.94440403e+00	(2.73429996e-02 8.55624250e-03 1.02607584e-18)	3
3.2             	p               	3.90366171e-01	(5.35157052e-01 8.54582238e-02 3.39696596e-19)	2	1.94656759e+00	(2.73429996e-02 8.55624250e-03 1.02607584e-18)	3
3.22            	p               	3.88659830e-01	(5.27344553e-01 8.68314735e-02 -1.46568437e-19)	2	1.94298054e+00	(2.73429996e-02 8.55624250e-03 1.02607584e-18)	3
3.24            	p               	3.93149324e-01	(5.27344553e-01 8.68314735e-02 -1.46568437e-19)	2	1.94853794e+00	(2.73429996e-02 8.55624250e-03 1.02607584e-18)	3
3.26            	p               	3.99484994e-01	(5.35157052e-01 8.54582238e-02 3.39696596e-19)	2	1.94413190e+00	(2.73429996e-02 8.55624250e-03 1.02607584e-18)	3
3.28            	p               	3.96271406e-01	(5.35157052e-01 8.54582238e-02 3.39696596e-19)	2	1.94629367e+00	(2.73429996e-02 8.55624250e-03 1.02607584e-18)	3
3.3             	p               	3.92700314e-01	(5.35157052e-01 8.54582238e-02 3.39696596e-19)	2	1.94545880e+00	(2.73429996e-02 8.55624250e-03 1.02607584e-18)	3
3.32            	p               	3.90448303e-01	(5.35157052e-01 8.54582238e-02 3.39696596e-19)	2	1.94243829e+00	(2.73429996e-02 8.55624250e-03 1.02607584e-18)	3
3.34            	p               	3.89674083e-01	(5.35157052e-01 8.54582238e-02 3.39696596e-19)	2	1.94829601e+00	(2.73429996e-02 8.55624250e-03 1.02607584e-18)	3
3.36            	p               	3.89936310e-01	(5.35157052e-01 8.54582238e-02 3.39696596e-19)	2	1.94411097e+00	(2.73429996e-02 8.55624250e-03 1.02607584e-18)	3
3.38            	p               	3.89090177e-01	(5.27344553e-01 8.68314735e-02 -1.46568437e-19)	2	1.94769252e+00	(2.73429996e-02 8.55624250e-03 1.02607584e-18)	3
3.4             	p               	3.90797798e-01	(5.27344553e-01 8.68314735e-02 -1.46568437e-19)	2	1.94460086e+00	(2.73429996e-02 8.55624250e-03 1.02607584e-18)	3
3.42            	p               	3.97598850e-01	(5.27344553e-01 8.68314735e-02 -1.46568437e-19)	2	1.94287852e+00	(2.73429996e-02 8.55624250e-03 1.02607584e-18)	3
3.44            	p               	3.98424399e-01	(5.35157052e-01 8.54582238e-02 3.39696596e-19)	2	1.94760324e+00	(2.73429996e-02 8.55624250e-03 1.02607584e-18)	3
3.46            	p               	3.94524672e-01	(5.35157052e-01 8.54582238e-02 3.39696596e-19)	2	1.94372968e+00	(2.73429996e-02 8.55624250e-03 1.02607584e-18)	3
3.48            	p               	3.91877510e-01	(5.35157052e-01 8.54582238e-02 3.39696596e-19)	2	1.94837047e+00	(2.73429996e-02 8.55624250e-03 1.02607584e-18)	3
3.5             	p               	3.89973252e-01	(5.35157052e-01 8.54582238e-02 3.39696596e-19)	2	1.94418163e+00	(2.73429996e-02 8.55624250e-03 1.02607584e-18)	3
3.52            	p               	3.89826980e-01	(5.35157052e-01 8.54582238e-02 3.39696596e-19)	2	1.94441931e+00	(2.73429996e-02 8.55624250e-03 1.02607584e-18)	3
3.54            	p               	3.89841936e-01	(5.27344553e-01 8.68314735e-02 -1.46568437e-19)	2	1.94655810e+00	(2.73429996e-02 8.55624250e-03 1.02607584e-18)	3
3.56            	p               	3.89604948e-01	(5.27344553e-01 8.68314735e-02 -1.46568437e-19)	2	1.94297488e+00	(2.73429996e-02 8.55624250e-03 1.02607584e-18)	3
3.58            	p               	3.95350688e-01	(5.27344553e-01 8.68314735e-02 -1.46568437e-19)	2	1.94853803e+00	(2.73429996e-02 8.55624250e-03 1.02607584e-18)	3
3.6             	p               	3.98597446e-01	(5.35157052e-01 8.54582238e-02 3.39696596e-19)	2	1.94413184e+00	(2.73429996e-02 8.55624250e-03 1.02607584e-18)	3
3.62            	p               	3.95178310e-01	(5.35157052e-01 8.54582238e-02 3.39696596e-19)	2	1.94630853e+00	(2.73429996e-02 8.55624250e-03 1.02607584e-18)	3
3.64            	p               	3.91978121e-01	(5.35157052e-01 8.54582238e-02 3.39696596e-19)	2	1.94545064e+00	(2.73429996e-02 8.55624250e-03 1.02607584e-18)	3
3.66            	p               	3.90208684e-01	(5.35157052e-01 8.54582238e-02 3.39696596e-19)	2	1.94243711e+00	(2.73429996e-02 8.55624250e-03 1.02607584e-18)	3