# Region type : patch airfoilRear
# Faces         : 64
# Area          : 5.07713308e-02
# Scale factor  : 1.00000000e+00
# Time          	areaAverage(p)
0.02            	5.37659026e-01
0.04            	5.81794273e-01
0.06            	6.01908506e-01
0.08            	5.95121903e-01
0.1             	5.90462865e-01
0.12            	5.88017191e-01
0.14            	5.85035720e-01
0.16            	5.82042652e-01
0.18            	5.77084182e-01
0.2             	5.66756754e-01
0.22            	5.54893935e-01
0.24            	5.42383407e-01
0.26            	5.29828626e-01
0.28            	5.17495531e-01
0.3             	5.05512347e-01
0.32            	4.93990453e-01
0.34            	4.83583008e-01
0.36            	4.74974537e-01
0.38            	4.67882400e-01
0.4             	4.67097285e-01
0.42            	4.68682853e-01
0.44            	4.70606396e-01
0.46            	4.72822100e-01
0.48            	4.75187561e-01
0.5             	4.77719747e-01
0.52            	4.80374189e-01
0.54            	4.83101838e-01
0.56            	4.85916415e-01
0.58            	4.88727419e-01
0.6             	4.91614117e-01
0.62            	4.94495799e-01
0.64            	4.97394864e-01
0.66            	5.00375966e-01
0.68            	5.03403632e-01
0.7             	5.06527937e-01
0.72            	5.09631034e-01
0.74            	5.12771324e-01
0.76            	5.15925468e-01
0.78            	5.18923526e-01
0.8             	5.21850428e-01
0.82            	5.24566601e-01
0.84            	5.27178746e-01
0.86            	5.29683465e-01
0.88            	5.32009722e-01
0.9             	5.34277337e-01
0.92            	5.36376541e-01
0.94            	5.38367209e-01
0.96            	5.40205489e-01
0.98            	5.41914999e-01
1               	5.43535723e-01
1.02            	5.45012246e-01
1.04            	5.46435554e-01
1.06            	5.47728138e-01
1.08            	5.48897753e-01
1.1             	5.49944514e-01
1.12            	5.50808730e-01
1.14            	5.51570478e-01
1.16            	5.52146454e-01
1.18            	5.52571230e-01
1.2             	5.52868824e-01
1.22            	5.53003429e-01
1.24            	5.53093079e-01
1.26            	5.53098499e-01
1.28            	5.53120227e-01
1.3             	5.53154489e-01
1.32            	5.53174160e-01
1.34            	5.53215169e-01
1.36            	5.53206194e-01
1.38            	5.53213901e-01
1.4             	5.53201944e-01
1.42            	5.53171865e-01
1.44            	5.53172569e-01
1.46            	5.53162974e-01
1.48            	5.53213904e-01
1.5             	5.53234313e-01
1.52            	5.53245083e-01
1.54            	5.53243908e-01
1.56            	5.53205113e-01
1.58            	5.53199976e-01
1.6             	5.53164240e-01
1.62            	5.53184470e-01
1.64            	5.53227790e-01
1.66            	5.53238420e-01
1.68            	5.53261651e-01
1.7             	5.53223860e-01
1.72            	5.53215421e-01
1.74            	5.53187530e-01
1.76            	5.53166760e-01
1.78            	5.53206105e-01
1.8             	5.53221711e-01
1.82            	5.53260369e-01
1.84            	5.53243569e-01
1.86            	5.53223683e-01
1.88            	5.53210509e-01
1.9             	5.53165174e-01
1.92            	5.53185253e-01
1.94            	5.53204906e-01
1.96            	5.53245791e-01
1.98            	5.53261965e-01
2               	5.53228035e-01
2.02            	5.53222856e-01
2.04            	5.53175208e-01
2.06            	5.53171276e-01
2.08            	5.53192396e-01
2.1             	5.53221796e-01
2.12            	5.53262560e-01
2.14            	5.53233828e-01
2.16            	5.53226223e-01
2.18            	5.53193359e-01
2.2             	5.53163092e-01
2.22            	5.53175991e-01
2.24            	5.53189724e-01
2.26            	5.53229077e-01
2.28            	5.53217074e-01
2.3             	5.53217940e-01
2.32            	5.53215051e-01
2.34            	5.53172729e-01
2.36            	5.53170412e-01
2.38            	5.53173063e-01
2.4             	5.53231862e-01
2.42            	5.53253801e-01
2.44            	5.53231202e-01
2.46            	5.53220971e-01
2.48            	5.53172705e-01
2.5             	5.53161138e-01
2.52            	5.53162650e-01
2.54            	5.53199465e-01
2.56            	5.53243942e-01
2.58            	5.53228711e-01
2.6             	5.53224280e-01
2.62            	5.53187545e-01
2.64            	5.53160886e-01
2.66            	5.53161905e-01
2.68            	5.53176255e-01
2.7             	5.53234292e-01
2.72            	5.53232790e-01
2.74            	5.53230796e-01
2.76            	5.53207960e-01
2.78            	5.53167690e-01
2.8             	5.53164399e-01
2.82            	5.53160792e-01
2.84            	5.53217541e-01
2.86            	5.53235387e-01
2.88            	5.53230403e-01
2.9             	5.53220892e-01
2.92            	5.53177953e-01
2.94            	5.53171375e-01
2.96            	5.53162497e-01
2.98            	5.53195801e-01
3               	5.53232903e-01
3.02            	5.53233677e-01
3.04            	5.53233237e-01
3.06            	5.53183277e-01
3.08            	5.53147985e-01
3.1             	5.53127286e-01
3.12            	5.53137314e-01
3.14            	5.53190275e-01
3.16            	5.53185781e-01
3.18            	5.53189507e-01
3.2             	5.53155126e-01
3.22            	5.53131611e-01
3.24            	5.53133888e-01
3.26            	5.53134506e-01
3.28            	5.53195081e-01
3.3             	5.53204880e-01
3.32            	5.53220854e-01
3.34            	5.53220254e-01
3.36            	5.53199811e-01
3.38            	5.53206299e-01
3.4             	5.53166412e-01
3.42            	5.53173785e-01
3.44            	5.53195811e-01
3.46            	5.53221078e-01
3.48            	5.53258591e-01
3.5             	5.53238223e-01
3.52            	5.53243258e-01
3.54            	5.53216064e-01
3.56            	5.53193902e-01
3.58            	5.53190103e-01
3.6             	5.53184855e-01
3.62            	5.53231134e-01
3.64            	5.53230769e-01
3.66            	5.53237096e-01
3.68            	5.53205828e-01
3.7             	5.53166916e-01
3.72            	5.53193467e-01
3.74            	5.53175560e-01
3.76            	5.53202320e-01
3.78            	5.53239864e-01
3.8             	5.53253969e-01
3.82            	5.53264164e-01
3.84            	5.53222591e-01
3.86            	5.53208419e-01
3.88            	5.53169778e-01
3.9             	5.53174202e-01
3.92            	5.53223604e-01
3.94            	5.53229140e-01
3.96            	5.53253510e-01
3.98            	5.53214013e-01
4               	5.53189995e-01
4.02            	5.53177430e-01
4.04            	5.53156800e-01
4.06            	5.53188649e-01
4.08            	5.53201351e-01
4.1             	5.53242218e-01
4.12            	5.53240323e-01
4.14            	5.53209869e-01
4.16            	5.53197737e-01
4.18            	5.53147036e-01
4.2             	5.53168810e-01
4.22            	5.53197444e-01
4.24            	5.53227842e-01
4.26            	5.53247778e-01
4.28            	5.53205317e-01
4.3             	5.53197247e-01
4.32            	5.53146916e-01
4.34            	5.53149060e-01
4.36            	5.53211282e-01
4.38            	5.53227549e-01
4.4             	5.53222045e-01
4.42            	5.53166367e-01
4.44            	5.53133430e-01
4.46            	5.53160814e-01
4.48            	5.53204832e-01
4.5             	5.53257277e-01
4.52            	5.53204204e-01
4.54            	5.53177751e-01
4.56            	5.53135560e-01
4.58            	5.53145566e-01
4.6             	5.53214955e-01
4.62            	5.53228747e-01
4.64            	5.53229752e-01
4.66            	5.53186518e-01
4.68            	5.53175813e-01
4.7             	5.53187206e-01
4.72            	5.53178108e-01
4.74            	5.53192987e-01
4.76            	5.53175612e-01
4.78            	5.53196577e-01
4.8             	5.53220618e-01
4.82            	5.53218318e-01
4.84            	5.53224759e-01
4.86            	5.53193313e-01
4.88            	5.53188815e-01
4.9             	5.53174863e-01
4.92            	5.53196932e-01
4.94            	5.53243541e-01
4.96            	5.53230312e-01
4.98            	5.53229837e-01
5               	5.53208882e-01
5.02            	5.53186118e-01
5.04            	5.53143785e-01
5.06            	5.53169821e-01
5.08            	5.53272574e-01
5.1             	5.53232136e-01
5.12            	5.53234201e-01
5.14            	5.53235241e-01
5.16            	5.53206570e-01
5.18            	5.53183117e-01
5.2             	5.53149168e-01
5.22            	5.53199406e-01
5.24            	5.53235286e-01
5.26            	5.53250776e-01
5.28            	5.53251380e-01
5.3             	5.53203920e-01
5.32            	5.53187947e-01
5.34            	5.53156229e-01
5.36            	5.53187824e-01
5.38            	5.53241890e-01
5.4             	5.53246747e-01
5.42            	5.53255558e-01
5.44            	5.53212300e-01
5.46            	5.53189270e-01
5.48            	5.53165305e-01
5.5             	5.53170927e-01
5.52            	5.53234461e-01
5.54            	5.53240740e-01
5.56            	5.53253471e-01
5.58            	5.53222734e-01
5.6             	5.53189104e-01
5.62            	5.53173959e-01
5.64            	5.53158885e-01
5.66            	5.53217750e-01
5.68            	5.53236532e-01
5.7             	5.53248688e-01
5.72            	5.53236199e-01
5.74            	5.53192520e-01
5.76            	5.53174873e-01
5.78            	5.53148686e-01
5.8             	5.53198995e-01
5.82            	5.53241740e-01
5.84            	5.53242600e-01
5.86            	5.53240335e-01
5.88            	5.53197001e-01
5.9             	5.53180455e-01
5.92            	5.53156358e-01
5.94            	5.53179281e-01
5.96            	5.53238296e-01
5.98            	5.53238976e-01
6               	5.53242355e-01
6.02            	5.53201485e-01
6.04            	5.53174859e-01
6.06            	5.53152429e-01
6.08            	5.53147021e-01
6.1             	5.53214570e-01
6.12            	5.53240765e-01
6.14            	5.53259740e-01
6.16            	5.53226361e-01
6.18            	5.53180940e-01
6.2             	5.53170512e-01
6.22            	5.53155216e-01
6.24            	5.53209722e-01
6.26            	5.53238519e-01
6.28            	5.53244571e-01
6.3             	5.53236104e-01
6.32            	5.53191380e-01
6.34            	5.53175657e-01
6.36            	5.53150954e-01
6.38            	5.53188065e-01
6.4             	5.53237421e-01
6.42            	5.53237367e-01
6.44            	5.53241539e-01
6.46            	5.53191177e-01
6.48            	5.53154736e-01
6.5             	5.53137687e-01
6.52            	5.53166523e-01
6.54            	5.53204911e-01
6.56            	5.53213269e-01
6.58            	5.53266200e-01
6.6             	5.53212188e-01
6.62            	5.53140287e-01
6.64            	5.53093109e-01
6.66            	5.53102373e-01
6.68            	5.53224538e-01
6.7             	5.53160004e-01
6.72            	5.53122026e-01
6.74            	5.53195937e-01
6.76            	5.53193319e-01
6.78            	5.53165349e-01
6.8             	5.53130859e-01
6.82            	5.53145931e-01
6.84            	5.53125441e-01
6.86            	5.53107190e-01
6.88            	5.53143089e-01
6.9             	5.53152770e-01
6.92            	5.53206492e-01
6.94            	5.53225050e-01
6.96            	5.53239764e-01
6.98            	5.53240247e-01
7               	5.53203791e-01
7.02            	5.53160009e-01
7.04            	5.53098328e-01
7.06            	5.53144736e-01
7.08            	5.53247438e-01
7.1             	5.53221819e-01
7.12            	5.53187119e-01
7.14            	5.53188900e-01
7.16            	5.53219840e-01
7.18            	5.53150521e-01
7.2             	5.53118701e-01
7.22            	5.53216447e-01
7.24            	5.53228798e-01
7.26            	5.53232385e-01
7.28            	5.53196680e-01
7.3             	5.53177492e-01
7.32            	5.53159759e-01
7.34            	5.53127230e-01
7.36            	5.53171980e-01
7.38            	5.53195330e-01
7.4             	5.53223819e-01
7.42            	5.53221472e-01
7.44            	5.53192508e-01
7.46            	5.53188673e-01
7.48            	5.53142049e-01
7.5             	5.53159646e-01
7.52            	5.53188062e-01
7.54            	5.53208361e-01
7.56            	5.53240842e-01
7.58            	5.53214668e-01
7.6             	5.53217719e-01
7.62            	5.53189034e-01
7.64            	5.53167308e-01
7.66            	5.53188945e-01
7.68            	5.53205168e-01
7.7             	5.53252656e-01
7.72            	5.53243550e-01
7.74            	5.53232351e-01
7.76            	5.53214953e-01
7.78            	5.53171499e-01
7.8             	5.53171396e-01
7.82            	5.53169545e-01
7.84            	5.53219481e-01
7.86            	5.53243031e-01
7.88            	5.53232879e-01
7.9             	5.53227731e-01
7.92            	5.53183658e-01
7.94            	5.53171867e-01
7.96            	5.53162638e-01
7.98            	5.53195822e-01
8               	5.53246550e-01
8.02            	5.53239995e-01
8.04            	5.53242396e-01
8.06            	5.53203572e-01
8.08            	5.53182330e-01
8.1             	5.53169337e-01
8.12            	5.53172032e-01
8.14            	5.53228443e-01
8.16            	5.53228180e-01
8.18            	5.53227828e-01
8.2             	5.53181228e-01
8.22            	5.53129447e-01
8.24            	5.53150365e-01
8.26            	5.53220762e-01
8.28            	5.53204352e-01
8.3             	5.53149623e-01
8.32            	5.53215231e-01
8.34            	5.53253975e-01
8.36            	5.53186163e-01
8.38            	5.53163087e-01
8.4             	5.53175861e-01
8.42            	5.53218916e-01
8.44            	5.53256178e-01
8.46            	5.53247315e-01
8.48            	5.53250325e-01
8.5             	5.53211025e-01
8.52            	5.53200201e-01
8.54            	5.53187180e-01
8.56            	5.53203291e-01
8.58            	5.53255903e-01
8.6             	5.53252236e-01
8.62            	5.53254073e-01
8.64            	5.53224057e-01
8.66            	5.53193807e-01
8.68            	5.53181778e-01
8.7             	5.53172625e-01
8.72            	5.53227012e-01
8.74            	5.53239453e-01
8.76            	5.53245767e-01
8.78            	5.53227000e-01
8.8             	5.53183593e-01
8.82            	5.53155563e-01
8.84            	5.53125949e-01
8.86            	5.53185618e-01
8.88            	5.53239940e-01
8.9             	5.53250985e-01
8.92            	5.53242962e-01
8.94            	5.53200316e-01
8.96            	5.53186795e-01
8.98            	5.53160822e-01
9               	5.53176170e-01
9.02            	5.53228668e-01
9.04            	5.53236900e-01
9.06            	5.53249805e-01
9.08            	5.53213543e-01
9.1             	5.53191244e-01
9.12            	5.53169788e-01
9.14            	5.53154440e-01
9.16            	5.53207662e-01
9.18            	5.53224324e-01
9.2             	5.53247932e-01
9.22            	5.53227142e-01
9.24            	5.53194272e-01
9.26            	5.53181431e-01
9.28            	5.53145051e-01
9.3             	5.53184806e-01
9.32            	5.53218038e-01
9.34            	5.53242376e-01
9.36            	5.53247819e-01
9.38            	5.53205370e-01
9.4             	5.53193948e-01
9.42            	5.53150726e-01
9.44            	5.53166695e-01
9.46            	5.53213541e-01
9.48            	5.53232521e-01
9.5             	5.53257142e-01
9.52            	5.53214911e-01
9.54            	5.53199412e-01
9.56            	5.53168721e-01
9.58            	5.53153014e-01
9.6             	5.53203280e-01
9.62            	5.53220661e-01
9.64            	5.53254178e-01
9.66            	5.53228610e-01
9.68            	5.53204984e-01
9.7             	5.53186511e-01
9.72            	5.53146030e-01
9.74            	5.53186361e-01
9.76            	5.53213159e-01
9.78            	5.53246235e-01
9.8             	5.53244210e-01
9.82            	5.53206374e-01
9.84            	5.53194921e-01
9.86            	5.53146029e-01
9.88            	5.53167707e-01
9.9             	5.53208852e-01
9.92            	5.53231724e-01
9.94            	5.53250374e-01
9.96            	5.53206953e-01
9.98            	5.53192217e-01
10              	5.53143827e-01
