# Force and moment coefficients
# dragDir       : (1.00000000e+00 0.00000000e+00 0.00000000e+00)
# sideDir       : (0.00000000e+00 0.00000000e+00 -1.00000000e+00)
# liftDir       : (0.00000000e+00 1.00000000e+00 0.00000000e+00)
# rollAxis      : (1.00000000e+00 0.00000000e+00 0.00000000e+00)
# pitchAxis     : (0.00000000e+00 0.00000000e+00 -1.00000000e+00)
# yawAxis       : (0.00000000e+00 1.00000000e+00 0.00000000e+00)
# magUInf       : 2.00000000e+00
# lRef          : 1.00000000e+00
# Aref          : 1.00000000e-01
# CofR          : (2.50000000e-01 0.00000000e+00 0.00000000e+00)
#
# Time          	Cd              	Cd(f)           	Cd(r)           	Cl              	Cl(f)           	Cl(r)           	CmPitch         	CmRoll          	CmYaw           	Cs              	Cs(f)           	Cs(r)           
0.02            	3.88138502e-02	1.94069251e-02	1.94069251e-02	-4.12145340e-01	-1.56229307e-01	-2.55916032e-01	4.98433624e-02	-3.35204133e-20	-2.91052281e-21	0.00000000e+00	-2.91052281e-21	2.91052281e-21
0.04            	3.24670884e-02	1.62335442e-02	1.62335442e-02	-3.91913657e-01	-1.42463836e-01	-2.49449821e-01	5.34929921e-02	-3.14670613e-20	-2.81953019e-21	0.00000000e+00	-2.81953019e-21	2.81953019e-21
0.06            	3.08045839e-02	1.54022920e-02	1.54022920e-02	-3.89668781e-01	-1.39522857e-01	-2.50145924e-01	5.53115338e-02	-3.14278440e-20	-2.85688134e-21	0.00000000e+00	-2.85688134e-21	2.85688134e-21
0.08            	3.15833670e-02	1.57916835e-02	1.57916835e-02	-3.91661692e-01	-1.40848833e-01	-2.50812859e-01	5.49820130e-02	-3.14730615e-20	-3.00436641e-21	0.00000000e+00	-3.00436641e-21	3.00436641e-21
0.1             	3.16539690e-02	1.58269845e-02	1.58269845e-02	-3.90398154e-01	-1.40647857e-01	-2.49750296e-01	5.45512195e-02	-3.06255639e-20	-3.15103839e-21	0.00000000e+00	-3.15103839e-21	3.15103839e-21
0.12            	3.16978007e-02	1.58489003e-02	1.58489003e-02	-3.89773281e-01	-1.40508302e-01	-2.49264979e-01	5.43783388e-02	-3.05283474e-20	-3.15865190e-21	0.00000000e+00	-3.15865190e-21	3.15865190e-21
0.14            	3.17725733e-02	1.58862867e-02	1.58862867e-02	-3.89132526e-01	-1.40436389e-01	-2.48696137e-01	5.41298739e-02	-3.03353026e-20	-3.12436879e-21	0.00000000e+00	-3.12436879e-21	3.12436879e-21
0.16            	3.18401295e-02	1.59200648e-02	1.59200648e-02	-3.88446704e-01	-1.40361737e-01	-2.48084966e-01	5.38616146e-02	-2.99484733e-20	-3.04769940e-21	0.00000000e+00	-3.04769940e-21	3.04769940e-21
0.18            	3.20432416e-02	1.60216208e-02	1.60216208e-02	-3.87827727e-01	-1.40460098e-01	-2.47367629e-01	5.34537657e-02	-2.98734327e-20	-2.91287471e-21	0.00000000e+00	-2.91287471e-21	2.91287471e-21
0.2             	3.25123805e-02	1.62561902e-02	1.62561902e-02	-3.86799978e-01	-1.40903060e-01	-2.45896918e-01	5.24969293e-02	-2.97754130e-20	-2.85030639e-21	0.00000000e+00	-2.85030639e-21	2.85030639e-21
0.22            	3.30643754e-02	1.65321877e-02	1.65321877e-02	-3.85693776e-01	-1.41463526e-01	-2.44230250e-01	5.13833619e-02	-2.97080869e-20	-2.80432437e-21	0.00000000e+00	-2.80432437e-21	2.80432437e-21
0.24            	3.36726015e-02	1.68363008e-02	1.68363008e-02	-3.84675151e-01	-1.42177687e-01	-2.42497465e-01	5.01598889e-02	-2.98236712e-20	-2.75857568e-21	0.00000000e+00	-2.75857568e-21	2.75857568e-21
0.26            	3.42777405e-02	1.71388702e-02	1.71388702e-02	-3.83623214e-01	-1.42901557e-01	-2.40721657e-01	4.89100503e-02	-2.98397103e-20	-2.73270293e-21	0.00000000e+00	-2.73270293e-21	2.73270293e-21
0.28            	3.48841895e-02	1.74420947e-02	1.74420947e-02	-3.82657880e-01	-1.43702393e-01	-2.38955487e-01	4.76265468e-02	-3.00239457e-20	-2.70690641e-21	0.00000000e+00	-2.70690641e-21	2.70690641e-21
0.3             	3.54709609e-02	1.77354805e-02	1.77354805e-02	-3.81705918e-01	-1.44514969e-01	-2.37190949e-01	4.63379901e-02	-3.01091712e-20	-2.69240367e-21	0.00000000e+00	-2.69240367e-21	2.69240367e-21
0.32            	3.60376575e-02	1.80188288e-02	1.80188288e-02	-3.80804851e-01	-1.45372581e-01	-2.35432271e-01	4.50298452e-02	-3.01112681e-20	-2.70487776e-21	0.00000000e+00	-2.70487776e-21	2.70487776e-21
0.34            	3.65702764e-02	1.82851382e-02	1.82851382e-02	-3.80108538e-01	-1.46245663e-01	-2.33862875e-01	4.38086061e-02	-3.02776159e-20	-2.69873868e-21	0.00000000e+00	-2.69873868e-21	2.69873868e-21
0.36            	3.70292624e-02	1.85146312e-02	1.85146312e-02	-3.79637123e-01	-1.47052563e-01	-2.32584560e-01	4.27659982e-02	-2.99224883e-20	-2.78046888e-21	0.00000000e+00	-2.78046888e-21	2.78046888e-21
0.38            	3.74411797e-02	1.87205899e-02	1.87205899e-02	-3.79440316e-01	-1.47856303e-01	-2.31584012e-01	4.18638545e-02	-2.97529206e-20	-2.85399154e-21	0.00000000e+00	-2.85399154e-21	2.85399154e-21
0.4             	3.76351800e-02	1.88175900e-02	1.88175900e-02	-3.80260148e-01	-1.48341807e-01	-2.31918341e-01	4.17882672e-02	-2.98220378e-20	-2.87320874e-21	0.00000000e+00	-2.87320874e-21	2.87320874e-21
0.42            	3.77439215e-02	1.88719608e-02	1.88719608e-02	-3.81443126e-01	-1.48710386e-01	-2.32732740e-01	4.20111770e-02	-2.99854582e-20	-2.89342972e-21	0.00000000e+00	-2.89342972e-21	2.89342972e-21
0.44            	3.78411093e-02	1.89205547e-02	1.89205547e-02	-3.82681285e-01	-1.49058825e-01	-2.33622460e-01	4.22818176e-02	-3.01460384e-20	-2.91296354e-21	0.00000000e+00	-2.91296354e-21	2.91296354e-21
0.46            	3.79074017e-02	1.89537009e-02	1.89537009e-02	-3.83848570e-01	-1.49344100e-01	-2.34504470e-01	4.25801848e-02	-3.02949142e-20	-2.92825965e-21	0.00000000e+00	-2.92825965e-21	2.92825965e-21
0.48            	3.79723029e-02	1.89861514e-02	1.89861514e-02	-3.85061451e-01	-1.49643042e-01	-2.35418409e-01	4.28876837e-02	-3.05105878e-20	-2.95488904e-21	0.00000000e+00	-2.95488904e-21	2.95488904e-21
0.5             	3.80098310e-02	1.90049155e-02	1.90049155e-02	-3.86178635e-01	-1.49871564e-01	-2.36307071e-01	4.32177533e-02	-3.07048386e-20	-2.97198779e-21	0.00000000e+00	-2.97198779e-21	2.97198779e-21
0.52            	3.80370310e-02	1.90185155e-02	1.90185155e-02	-3.87280909e-01	-1.50096513e-01	-2.37184396e-01	4.35439418e-02	-3.09726338e-20	-2.99769413e-21	0.00000000e+00	-2.99769413e-21	2.99769413e-21
0.54            	3.80534984e-02	1.90267492e-02	1.90267492e-02	-3.88348461e-01	-1.50294354e-01	-2.38054107e-01	4.38798766e-02	-3.12017652e-20	-3.01682731e-21	0.00000000e+00	-3.01682731e-21	3.01682731e-21
0.56            	3.80493907e-02	1.90246954e-02	1.90246954e-02	-3.89330371e-01	-1.50452665e-01	-2.38877707e-01	4.42125210e-02	-3.14034651e-20	-3.03283170e-21	0.00000000e+00	-3.03283170e-21	3.03283170e-21
0.58            	3.80496960e-02	1.90248480e-02	1.90248480e-02	-3.90336033e-01	-1.50631263e-01	-2.39704770e-01	4.45367536e-02	-3.16135988e-20	-3.05361480e-21	0.00000000e+00	-3.05361480e-21	3.05361480e-21
0.6             	3.80258026e-02	1.90129013e-02	1.90129013e-02	-3.91231490e-01	-1.50747151e-01	-2.40484339e-01	4.48685939e-02	-3.17678169e-20	-3.06425783e-21	0.00000000e+00	-3.06425783e-21	3.06425783e-21
0.62            	3.79979430e-02	1.89989715e-02	1.89989715e-02	-3.92102662e-01	-1.50871883e-01	-2.41230779e-01	4.51794479e-02	-3.19651471e-20	-3.08210430e-21	0.00000000e+00	-3.08210430e-21	3.08210430e-21
0.64            	3.79584195e-02	1.89792098e-02	1.89792098e-02	-3.92913894e-01	-1.50966792e-01	-2.41947101e-01	4.54901545e-02	-3.21042301e-20	-3.08886799e-21	0.00000000e+00	-3.08886799e-21	3.08886799e-21
0.66            	3.78998246e-02	1.89499123e-02	1.89499123e-02	-3.93646265e-01	-1.51040771e-01	-2.42605494e-01	4.57823611e-02	-3.22437336e-20	-3.09280070e-21	0.00000000e+00	-3.09280070e-21	3.09280070e-21
0.68            	3.78413447e-02	1.89206723e-02	1.89206723e-02	-3.94395918e-01	-1.51133813e-01	-2.43262105e-01	4.60641457e-02	-3.23773615e-20	-3.09577559e-21	0.00000000e+00	-3.09577559e-21	3.09577559e-21
0.7             	3.77574873e-02	1.88787437e-02	1.88787437e-02	-3.95036163e-01	-1.51174192e-01	-2.43861971e-01	4.63438898e-02	-3.24571719e-20	-3.08862042e-21	0.00000000e+00	-3.08862042e-21	3.08862042e-21
0.72            	3.76755111e-02	1.88377555e-02	1.88377555e-02	-3.95679501e-01	-1.51237339e-01	-2.44442163e-01	4.66024120e-02	-3.25701876e-20	-3.08830360e-21	0.00000000e+00	-3.08830360e-21	3.08830360e-21
0.74            	3.75807594e-02	1.87903797e-02	1.87903797e-02	-3.96263670e-01	-1.51256334e-01	-2.45007336e-01	4.68755010e-02	-3.26236590e-20	-3.07591845e-21	0.00000000e+00	-3.07591845e-21	3.07591845e-21
0.76            	3.74793268e-02	1.87396634e-02	1.87396634e-02	-3.96814897e-01	-1.51267725e-01	-2.45547172e-01	4.71397233e-02	-3.27019657e-20	-3.06705990e-21	0.00000000e+00	-3.06705990e-21	3.06705990e-21
0.78            	3.73903772e-02	1.86951886e-02	1.86951886e-02	-3.97381174e-01	-1.51291378e-01	-2.46089796e-01	4.73992092e-02	-3.27564836e-20	-3.05833261e-21	0.00000000e+00	-3.05833261e-21	3.05833261e-21
0.8             	3.72931661e-02	1.86465831e-02	1.86465831e-02	-3.97875185e-01	-1.51279390e-01	-2.46595794e-01	4.76582021e-02	-3.27754745e-20	-3.04784719e-21	0.00000000e+00	-3.04784719e-21	3.04784719e-21
0.82            	3.72145492e-02	1.86072746e-02	1.86072746e-02	-3.98399388e-01	-1.51304232e-01	-2.47095156e-01	4.78954621e-02	-3.28236124e-20	-3.04848395e-21	0.00000000e+00	-3.04848395e-21	3.04848395e-21
0.84            	3.71296962e-02	1.85648481e-02	1.85648481e-02	-3.98851072e-01	-1.51283590e-01	-2.47567482e-01	4.81419462e-02	-3.28102275e-20	-3.04304266e-21	0.00000000e+00	-3.04304266e-21	3.04304266e-21
0.86            	3.70489313e-02	1.85244656e-02	1.85244656e-02	-3.99287574e-01	-1.51269854e-01	-2.48017719e-01	4.83739324e-02	-3.28324768e-20	-3.04693473e-21	0.00000000e+00	-3.04693473e-21	3.04693473e-21
0.88            	3.69780069e-02	1.84890035e-02	1.84890035e-02	-3.99716148e-01	-1.51254817e-01	-2.48461331e-01	4.86032567e-02	-3.28206485e-20	-3.04682293e-21	0.00000000e+00	-3.04682293e-21	3.04682293e-21
0.9             	3.69010569e-02	1.84505284e-02	1.84505284e-02	-4.00089605e-01	-1.51218668e-01	-2.48870937e-01	4.88261347e-02	-3.28000636e-20	-3.04513468e-21	0.00000000e+00	-3.04513468e-21	3.04513468e-21
0.92            	3.68425484e-02	1.84212742e-02	1.84212742e-02	-4.00507502e-01	-1.51221671e-01	-2.49285831e-01	4.90320801e-02	-3.28117872e-20	-3.04913245e-21	0.00000000e+00	-3.04913245e-21	3.04913245e-21
0.94            	3.67761686e-02	1.83880843e-02	1.83880843e-02	-4.00841997e-01	-1.51180930e-01	-2.49661067e-01	4.92400687e-02	-3.27806387e-20	-3.04678276e-21	0.00000000e+00	-3.04678276e-21	3.04678276e-21
0.96            	3.67195748e-02	1.83597874e-02	1.83597874e-02	-4.01177566e-01	-1.51162676e-01	-2.50014890e-01	4.94261073e-02	-3.27973813e-20	-3.05453865e-21	0.00000000e+00	-3.05453865e-21	3.05453865e-21
0.98            	3.66660882e-02	1.83330441e-02	1.83330441e-02	-4.01484768e-01	-1.51126139e-01	-2.50358628e-01	4.96162444e-02	-3.27662813e-20	-3.05500860e-21	0.00000000e+00	-3.05500860e-21	3.05500860e-21
1               	3.66097286e-02	1.83048643e-02	1.83048643e-02	-4.01743967e-01	-1.51079637e-01	-2.50664330e-01	4.97923463e-02	-3.27512932e-20	-3.05618587e-21	0.00000000e+00	-3.05618587e-21	3.05618587e-21
1.02            	3.65699679e-02	1.82849840e-02	1.82849840e-02	-4.02045802e-01	-1.51066909e-01	-2.50978893e-01	4.99559920e-02	-3.27577462e-20	-3.05834475e-21	0.00000000e+00	-3.05834475e-21	3.05834475e-21
1.04            	3.65204830e-02	1.82602415e-02	1.82602415e-02	-4.02273483e-01	-1.51018207e-01	-2.51255277e-01	5.01185350e-02	-3.27400804e-20	-3.05344878e-21	0.00000000e+00	-3.05344878e-21	3.05344878e-21
1.06            	3.64843896e-02	1.82421948e-02	1.82421948e-02	-4.02530425e-01	-1.51006259e-01	-2.51524166e-01	5.02589533e-02	-3.27853339e-20	-3.05660654e-21	0.00000000e+00	-3.05660654e-21	3.05660654e-21
1.08            	3.64462200e-02	1.82231100e-02	1.82231100e-02	-4.02731674e-01	-1.50963107e-01	-2.51768567e-01	5.04027299e-02	-3.27801049e-20	-3.05049368e-21	0.00000000e+00	-3.05049368e-21	3.05049368e-21
1.1             	3.64090956e-02	1.82045478e-02	1.82045478e-02	-4.02894975e-01	-1.50922643e-01	-2.51972331e-01	5.05248439e-02	-3.28073268e-20	-3.04909007e-21	0.00000000e+00	-3.04909007e-21	3.04909007e-21
1.12            	3.63865863e-02	1.81932932e-02	1.81932932e-02	-4.03075967e-01	-1.50904175e-01	-2.52171792e-01	5.06338087e-02	-3.28242080e-20	-3.04652357e-21	0.00000000e+00	-3.04652357e-21	3.04652357e-21
1.14            	3.63573099e-02	1.81786549e-02	1.81786549e-02	-4.03181985e-01	-1.50861708e-01	-2.52320277e-01	5.07292844e-02	-3.28206044e-20	-3.03983043e-21	0.00000000e+00	-3.03983043e-21	3.03983043e-21
1.16            	3.63460972e-02	1.81730486e-02	1.81730486e-02	-4.03324099e-01	-1.50866873e-01	-2.52457226e-01	5.07951763e-02	-3.28619377e-20	-3.04163263e-21	0.00000000e+00	-3.04163263e-21	3.04163263e-21
1.18            	3.63301127e-02	1.81650563e-02	1.81650563e-02	-4.03385153e-01	-1.50838037e-01	-2.52547116e-01	5.08545393e-02	-3.28527349e-20	-3.03549587e-21	0.00000000e+00	-3.03549587e-21	3.03549587e-21
1.2             	3.63188553e-02	1.81594276e-02	1.81594276e-02	-4.03427592e-01	-1.50826430e-01	-2.52601163e-01	5.08873664e-02	-3.28810295e-20	-3.03838030e-21	0.00000000e+00	-3.03838030e-21	3.03838030e-21
1.22            	3.63169861e-02	1.81584931e-02	1.81584931e-02	-4.03465065e-01	-1.50821486e-01	-2.52643579e-01	5.09110466e-02	-3.28714345e-20	-3.03789532e-21	0.00000000e+00	-3.03789532e-21	3.03789532e-21
1.24            	3.63086054e-02	1.81543027e-02	1.81543027e-02	-4.03449554e-01	-1.50801900e-01	-2.52647654e-01	5.09228768e-02	-3.28490669e-20	-3.03655094e-21	0.00000000e+00	-3.03655094e-21	3.03655094e-21
1.26            	3.63160332e-02	1.81580166e-02	1.81580166e-02	-4.03493615e-01	-1.50825889e-01	-2.52667725e-01	5.09209181e-02	-3.28608951e-20	-3.04050581e-21	0.00000000e+00	-3.04050581e-21	3.04050581e-21
1.28            	3.63116316e-02	1.81558158e-02	1.81558158e-02	-4.03476412e-01	-1.50810470e-01	-2.52665942e-01	5.09277356e-02	-3.28382237e-20	-3.03662334e-21	0.00000000e+00	-3.03662334e-21	3.03662334e-21
1.3             	3.63118730e-02	1.81559365e-02	1.81559365e-02	-4.03490017e-01	-1.50820982e-01	-2.52669036e-01	5.09240269e-02	-3.28748486e-20	-3.04088548e-21	0.00000000e+00	-3.04088548e-21	3.04088548e-21
1.32            	3.63115506e-02	1.81557753e-02	1.81557753e-02	-4.03495215e-01	-1.50816361e-01	-2.52678853e-01	5.09312460e-02	-3.28706167e-20	-3.03656280e-21	0.00000000e+00	-3.03656280e-21	3.03656280e-21
1.34            	3.63049468e-02	1.81524734e-02	1.81524734e-02	-4.03472408e-01	-1.50803459e-01	-2.52668950e-01	5.09327457e-02	-3.28771690e-20	-3.03400286e-21	0.00000000e+00	-3.03400286e-21	3.03400286e-21
1.36            	3.63119413e-02	1.81559707e-02	1.81559707e-02	-4.03508871e-01	-1.50823857e-01	-2.52685014e-01	5.09305783e-02	-3.28900300e-20	-3.03500334e-21	0.00000000e+00	-3.03500334e-21	3.03500334e-21
1.38            	3.63070281e-02	1.81535141e-02	1.81535141e-02	-4.03483759e-01	-1.50807741e-01	-2.52676018e-01	5.09341384e-02	-3.28665075e-20	-3.03115089e-21	0.00000000e+00	-3.03115089e-21	3.03115089e-21
1.4             	3.63120352e-02	1.81560176e-02	1.81560176e-02	-4.03507885e-01	-1.50827377e-01	-2.52680508e-01	5.09265657e-02	-3.28920122e-20	-3.03777819e-21	0.00000000e+00	-3.03777819e-21	3.03777819e-21
1.42            	3.63116401e-02	1.81558201e-02	1.81558201e-02	-4.03494902e-01	-1.50815866e-01	-2.52679036e-01	5.09315848e-02	-3.28570668e-20	-3.03690718e-21	0.00000000e+00	-3.03690718e-21	3.03690718e-21
1.44            	3.63074664e-02	1.81537332e-02	1.81537332e-02	-4.03471483e-01	-1.50805974e-01	-2.52665509e-01	5.09297671e-02	-3.28594809e-20	-3.03990904e-21	0.00000000e+00	-3.03990904e-21	3.03990904e-21
1.46            	3.63124560e-02	1.81562280e-02	1.81562280e-02	-4.03496354e-01	-1.50817109e-01	-2.52679245e-01	5.09310682e-02	-3.28653995e-20	-3.03926238e-21	0.00000000e+00	-3.03926238e-21	3.03926238e-21
1.48            	3.63055596e-02	1.81527798e-02	1.81527798e-02	-4.03475432e-01	-1.50802131e-01	-2.52673301e-01	5.09355848e-02	-3.28559199e-20	-3.03361186e-21	0.00000000e+00	-3.03361186e-21	3.03361186e-21
1.5             	3.63118442e-02	1.81559221e-02	1.81559221e-02	-4.03518363e-01	-1.50829396e-01	-2.52688967e-01	5.09297854e-02	-3.28930201e-20	-3.03613653e-21	0.00000000e+00	-3.03613653e-21	3.03613653e-21
1.52            	3.63088862e-02	1.81544431e-02	1.81544431e-02	-4.03505433e-01	-1.50816725e-01	-2.52688708e-01	5.09359914e-02	-3.28758228e-20	-3.03140655e-21	0.00000000e+00	-3.03140655e-21	3.03140655e-21
1.54            	3.63070551e-02	1.81535275e-02	1.81535275e-02	-4.03494629e-01	-1.50815485e-01	-2.52679143e-01	5.09318290e-02	-3.28957123e-20	-3.03580543e-21	0.00000000e+00	-3.03580543e-21	3.03580543e-21
1.56            	3.63106302e-02	1.81553151e-02	1.81553151e-02	-4.03501049e-01	-1.50816273e-01	-2.52684776e-01	5.09342519e-02	-3.28830312e-20	-3.03584198e-21	0.00000000e+00	-3.03584198e-21	3.03584198e-21
1.58            	3.63052325e-02	1.81526162e-02	1.81526162e-02	-4.03468602e-01	-1.50799449e-01	-2.52669154e-01	5.09348526e-02	-3.28531823e-20	-3.03584179e-21	0.00000000e+00	-3.03584179e-21	3.03584179e-21
1.6             	3.63139618e-02	1.81569809e-02	1.81569809e-02	-4.03505346e-01	-1.50824484e-01	-2.52680862e-01	5.09281892e-02	-3.28615718e-20	-3.04038332e-21	0.00000000e+00	-3.04038332e-21	3.04038332e-21
1.62            	3.63095987e-02	1.81547993e-02	1.81547993e-02	-4.03487826e-01	-1.50810158e-01	-2.52677669e-01	5.09337556e-02	-3.28456974e-20	-3.03529829e-21	0.00000000e+00	-3.03529829e-21	3.03529829e-21
1.64            	3.63095837e-02	1.81547918e-02	1.81547918e-02	-4.03503213e-01	-1.50821529e-01	-2.52681684e-01	5.09300771e-02	-3.28887947e-20	-3.03843524e-21	0.00000000e+00	-3.03843524e-21	3.03843524e-21
1.66            	3.63095303e-02	1.81547652e-02	1.81547652e-02	-4.03506707e-01	-1.50816867e-01	-2.52689840e-01	5.09364867e-02	-3.28843115e-20	-3.03413453e-21	0.00000000e+00	-3.03413453e-21	3.03413453e-21
1.68            	3.63034902e-02	1.81517451e-02	1.81517451e-02	-4.03480748e-01	-1.50803454e-01	-2.52677294e-01	5.09369195e-02	-3.28849294e-20	-3.03265728e-21	0.00000000e+00	-3.03265728e-21	3.03265728e-21
1.7             	3.63113743e-02	1.81556871e-02	1.81556871e-02	-4.03511964e-01	-1.50822995e-01	-2.52688969e-01	5.09329868e-02	-3.28892668e-20	-3.03513464e-21	0.00000000e+00	-3.03513464e-21	3.03513464e-21
1.72            	3.63069655e-02	1.81534828e-02	1.81534828e-02	-4.03483947e-01	-1.50806231e-01	-2.52677716e-01	5.09357423e-02	-3.28591537e-20	-3.03244616e-21	0.00000000e+00	-3.03244616e-21	3.03244616e-21
1.74            	3.63124994e-02	1.81562497e-02	1.81562497e-02	-4.03505370e-01	-1.50825256e-01	-2.52680114e-01	5.09274291e-02	-3.28751045e-20	-3.04075029e-21	0.00000000e+00	-3.04075029e-21	3.04075029e-21
1.76            	3.63117982e-02	1.81558991e-02	1.81558991e-02	-4.03493976e-01	-1.50814019e-01	-2.52679957e-01	5.09329694e-02	-3.28507420e-20	-3.03800408e-21	0.00000000e+00	-3.03800408e-21	3.03800408e-21
1.78            	3.63064234e-02	1.81532117e-02	1.81532117e-02	-4.03477545e-01	-1.50805926e-01	-2.52671619e-01	5.09328464e-02	-3.28695016e-20	-3.03816433e-21	0.00000000e+00	-3.03816433e-21	3.03816433e-21
1.8             	3.63106050e-02	1.81553025e-02	1.81553025e-02	-4.03506834e-01	-1.50818340e-01	-2.52688494e-01	5.09350767e-02	-3.28831151e-20	-3.03614112e-21	0.00000000e+00	-3.03614112e-21	3.03614112e-21
1.82            	3.63040887e-02	1.81520444e-02	1.81520444e-02	-4.03483685e-01	-1.50803102e-01	-2.52680582e-01	5.09387399e-02	-3.28714713e-20	-3.03088035e-21	0.00000000e+00	-3.03088035e-21	3.03088035e-21
1.84            	3.63115527e-02	1.81557764e-02	1.81557764e-02	-4.03520015e-01	-1.50829344e-01	-2.52690671e-01	5.09306635e-02	-3.28975022e-20	-3.03533160e-21	0.00000000e+00	-3.03533160e-21	3.03533160e-21
1.86            	3.63095531e-02	1.81547765e-02	1.81547765e-02	-4.03501572e-01	-1.50815538e-01	-2.52686035e-01	5.09352486e-02	-3.28708536e-20	-3.03226563e-21	0.00000000e+00	-3.03226563e-21	3.03226563e-21
1.88            	3.63081244e-02	1.81540622e-02	1.81540622e-02	-4.03488765e-01	-1.50813658e-01	-2.52675107e-01	5.09307247e-02	-3.28817488e-20	-3.03828386e-21	0.00000000e+00	-3.03828386e-21	3.03828386e-21
1.9             	3.63118830e-02	1.81559415e-02	1.81559415e-02	-4.03493890e-01	-1.50813745e-01	-2.52680145e-01	5.09332005e-02	-3.28614712e-20	-3.03963425e-21	0.00000000e+00	-3.03963425e-21	3.03963425e-21
1.92            	3.63056916e-02	1.81528458e-02	1.81528458e-02	-4.03465948e-01	-1.50798015e-01	-2.52667933e-01	5.09349593e-02	-3.28486131e-20	-3.03666498e-21	0.00000000e+00	-3.03666498e-21	3.03666498e-21
1.94            	3.63126818e-02	1.81563409e-02	1.81563409e-02	-4.03512610e-01	-1.50825374e-01	-2.52687236e-01	5.09309307e-02	-3.28774139e-20	-3.03758644e-21	0.00000000e+00	-3.03758644e-21	3.03758644e-21
1.96            	3.63076579e-02	1.81538289e-02	1.81538289e-02	-4.03498720e-01	-1.50812192e-01	-2.52686528e-01	5.09371676e-02	-3.28662429e-20	-3.03166925e-21	0.00000000e+00	-3.03166925e-21	3.03166925e-21
1.98            	3.63085213e-02	1.81542607e-02	1.81542607e-02	-4.03509393e-01	-1.50822805e-01	-2.52686588e-01	5.09318916e-02	-3.29038938e-20	-3.03577817e-21	0.00000000e+00	-3.03577817e-21	3.03577817e-21
2               	3.63098575e-02	1.81549288e-02	1.81549288e-02	-4.03504853e-01	-1.50816523e-01	-2.52688331e-01	5.09359041e-02	-3.28855424e-20	-3.03390115e-21	0.00000000e+00	-3.03390115e-21	3.03390115e-21
2.02            	3.63047189e-02	1.81523594e-02	1.81523594e-02	-4.03473861e-01	-1.50801911e-01	-2.52671950e-01	5.09350191e-02	-3.28757684e-20	-3.03429556e-21	0.00000000e+00	-3.03429556e-21	3.03429556e-21
2.04            	3.63128970e-02	1.81564485e-02	1.81564485e-02	-4.03503224e-01	-1.50820558e-01	-2.52682666e-01	5.09310541e-02	-3.28689992e-20	-3.03870618e-21	0.00000000e+00	-3.03870618e-21	3.03870618e-21
2.06            	3.63083392e-02	1.81541696e-02	1.81541696e-02	-4.03475971e-01	-1.50803824e-01	-2.52672148e-01	5.09341619e-02	-3.28395056e-20	-3.03591068e-21	0.00000000e+00	-3.03591068e-21	3.03591068e-21
2.08            	3.63123597e-02	1.81561799e-02	1.81561799e-02	-4.03506316e-01	-1.50824944e-01	-2.52681372e-01	5.09282138e-02	-3.28786618e-20	-3.04011538e-21	0.00000000e+00	-3.04011538e-21	3.04011538e-21
2.1             	3.63100664e-02	1.81550332e-02	1.81550332e-02	-4.03503810e-01	-1.50816114e-01	-2.52687696e-01	5.09357907e-02	-3.28711609e-20	-3.03438616e-21	0.00000000e+00	-3.03438616e-21	3.03438616e-21
2.12            	3.63046590e-02	1.81523295e-02	1.81523295e-02	-4.03487702e-01	-1.50808407e-01	-2.52679294e-01	5.09354436e-02	-3.28915520e-20	-3.03429678e-21	0.00000000e+00	-3.03429678e-21	3.03429678e-21
2.14            	3.63102164e-02	1.81551082e-02	1.81551082e-02	-4.03508958e-01	-1.50819234e-01	-2.52689724e-01	5.09352454e-02	-3.28928575e-20	-3.03442291e-21	0.00000000e+00	-3.03442291e-21	3.03442291e-21
2.16            	3.63051541e-02	1.81525771e-02	1.81525771e-02	-4.03477532e-01	-1.50802246e-01	-2.52675286e-01	5.09365203e-02	-3.28681308e-20	-3.03147927e-21	0.00000000e+00	-3.03147927e-21	3.03147927e-21
2.18            	3.63131357e-02	1.81565678e-02	1.81565678e-02	-4.03511061e-01	-1.50827367e-01	-2.52683693e-01	5.09281632e-02	-3.28822165e-20	-3.03801206e-21	0.00000000e+00	-3.03801206e-21	3.03801206e-21
2.2             	3.63114523e-02	1.81557262e-02	1.81557262e-02	-4.03490704e-01	-1.50813048e-01	-2.52677656e-01	5.09323043e-02	-3.28459944e-20	-3.03663266e-21	0.00000000e+00	-3.03663266e-21	3.03663266e-21
2.22            	3.63092280e-02	1.81546140e-02	1.81546140e-02	-4.03482696e-01	-1.50812360e-01	-2.52670336e-01	5.09289882e-02	-3.28701286e-20	-3.04034961e-21	0.00000000e+00	-3.04034961e-21	3.04034961e-21
2.24            	3.63111103e-02	1.81555552e-02	1.81555552e-02	-4.03498276e-01	-1.50815257e-01	-2.52683018e-01	5.09338807e-02	-3.28753194e-20	-3.03718640e-21	0.00000000e+00	-3.03718640e-21	3.03718640e-21
2.26            	3.63043104e-02	1.81521552e-02	1.81521552e-02	-4.03473766e-01	-1.50801577e-01	-2.52672189e-01	5.09353063e-02	-3.28717049e-20	-3.03261139e-21	0.00000000e+00	-3.03261139e-21	3.03261139e-21
2.28            	3.63122934e-02	1.81561467e-02	1.81561467e-02	-4.03514753e-01	-1.50828395e-01	-2.52686358e-01	5.09289819e-02	-3.28945338e-20	-3.03456134e-21	0.00000000e+00	-3.03456134e-21	3.03456134e-21
2.3             	3.63085223e-02	1.81542611e-02	1.81542611e-02	-4.03493675e-01	-1.50812759e-01	-2.52680917e-01	5.09340789e-02	-3.28696381e-20	-3.03106292e-21	0.00000000e+00	-3.03106292e-21	3.03106292e-21
2.32            	3.63100134e-02	1.81550067e-02	1.81550067e-02	-4.03501100e-01	-1.50821499e-01	-2.52679602e-01	5.09290516e-02	-3.28939963e-20	-3.03752875e-21	0.00000000e+00	-3.03752875e-21	3.03752875e-21
2.34            	3.63115987e-02	1.81557993e-02	1.81557993e-02	-4.03494976e-01	-1.50814185e-01	-2.52680790e-01	5.09333026e-02	-3.28639294e-20	-3.03769610e-21	0.00000000e+00	-3.03769610e-21	3.03769610e-21
2.36            	3.63063739e-02	1.81531870e-02	1.81531870e-02	-4.03464518e-01	-1.50799815e-01	-2.52664703e-01	5.09324439e-02	-3.28539674e-20	-3.03816132e-21	0.00000000e+00	-3.03816132e-21	3.03816132e-21
2.38            	3.63129594e-02	1.81564797e-02	1.81564797e-02	-4.03502812e-01	-1.50820772e-01	-2.52682040e-01	5.09306338e-02	-3.28713764e-20	-3.03828719e-21	0.00000000e+00	-3.03828719e-21	3.03828719e-21
2.4             	3.63064195e-02	1.81532097e-02	1.81532097e-02	-4.03486722e-01	-1.50806484e-01	-2.52680238e-01	5.09368767e-02	-3.28616563e-20	-3.03200572e-21	0.00000000e+00	-3.03200572e-21	3.03200572e-21
2.42            	3.63104355e-02	1.81552178e-02	1.81552178e-02	-4.03517333e-01	-1.50827899e-01	-2.52689434e-01	5.09307677e-02	-3.29032455e-20	-3.03577266e-21	0.00000000e+00	-3.03577266e-21	3.03577266e-21
2.44            	3.63097688e-02	1.81548844e-02	1.81548844e-02	-4.03505482e-01	-1.50817259e-01	-2.52688222e-01	5.09354817e-02	-3.28819358e-20	-3.03246914e-21	0.00000000e+00	-3.03246914e-21	3.03246914e-21
2.46            	3.63059805e-02	1.81529903e-02	1.81529903e-02	-4.03480343e-01	-1.50807703e-01	-2.52672640e-01	5.09324688e-02	-3.28872806e-20	-3.03507025e-21	0.00000000e+00	-3.03507025e-21	3.03507025e-21
2.48            	3.63121342e-02	1.81560671e-02	1.81560671e-02	-4.03498005e-01	-1.50817160e-01	-2.52680845e-01	5.09318424e-02	-3.28747912e-20	-3.03760571e-21	0.00000000e+00	-3.03760571e-21	3.03760571e-21
2.5             	3.63071929e-02	1.81535965e-02	1.81535965e-02	-4.03465850e-01	-1.50799775e-01	-2.52666075e-01	5.09331496e-02	-3.28416322e-20	-3.03616163e-21	0.00000000e+00	-3.03616163e-21	3.03616163e-21
2.52            	3.63141067e-02	1.81570534e-02	1.81570534e-02	-4.03505600e-01	-1.50826377e-01	-2.52679222e-01	5.09264225e-02	-3.28706835e-20	-3.04003275e-21	0.00000000e+00	-3.04003275e-21	3.04003275e-21
2.54            	3.63103005e-02	1.81551503e-02	1.81551503e-02	-4.03497162e-01	-1.50814972e-01	-2.52682190e-01	5.09336093e-02	-3.28607042e-20	-3.03402239e-21	0.00000000e+00	-3.03402239e-21	3.03402239e-21
2.56            	3.63071056e-02	1.81535528e-02	1.81535528e-02	-4.03494928e-01	-1.50815831e-01	-2.52679097e-01	5.09316331e-02	-3.28952409e-20	-3.03593684e-21	0.00000000e+00	-3.03593684e-21	3.03593684e-21
2.58            	3.63098813e-02	1.81549407e-02	1.81549407e-02	-4.03505230e-01	-1.50817503e-01	-2.52687727e-01	5.09351124e-02	-3.28925753e-20	-3.03413861e-21	0.00000000e+00	-3.03413861e-21	3.03413861e-21
2.6             	3.63044592e-02	1.81522296e-02	1.81522296e-02	-4.03472897e-01	-1.50801216e-01	-2.52671681e-01	5.09352324e-02	-3.28749019e-20	-3.03206446e-21	0.00000000e+00	-3.03206446e-21	3.03206446e-21
2.62            	3.63132174e-02	1.81566087e-02	1.81566087e-02	-4.03509447e-01	-1.50826041e-01	-2.52683406e-01	5.09286828e-02	-3.28835478e-20	-3.03649042e-21	0.00000000e+00	-3.03649042e-21	3.03649042e-21
2.64            	3.63103059e-02	1.81551529e-02	1.81551529e-02	-4.03483415e-01	-1.50809980e-01	-2.52673435e-01	5.09317275e-02	-3.28448020e-20	-3.03543444e-21	0.00000000e+00	-3.03543444e-21	3.03543444e-21
2.66            	3.63117034e-02	1.81558517e-02	1.81558517e-02	-4.03491704e-01	-1.50819640e-01	-2.52672064e-01	5.09262122e-02	-3.28721362e-20	-3.04138991e-21	0.00000000e+00	-3.04138991e-21	3.04138991e-21
2.68            	3.63114875e-02	1.81557438e-02	1.81557438e-02	-4.03495605e-01	-1.50814919e-01	-2.52680685e-01	5.09328832e-02	-3.28673484e-20	-3.03707629e-21	0.00000000e+00	-3.03707629e-21	3.03707629e-21
2.7             	3.63043700e-02	1.81521850e-02	1.81521850e-02	-4.03475967e-01	-1.50803007e-01	-2.52672960e-01	5.09349767e-02	-3.28762305e-20	-3.03425825e-21	0.00000000e+00	-3.03425825e-21	3.03425825e-21
2.72            	3.63110734e-02	1.81555367e-02	1.81555367e-02	-4.03513447e-01	-1.50823743e-01	-2.52689704e-01	5.09329803e-02	-3.28934031e-20	-3.03440473e-21	0.00000000e+00	-3.03440473e-21	3.03440473e-21
2.74            	3.63064407e-02	1.81532203e-02	1.81532203e-02	-4.03486462e-01	-1.50807497e-01	-2.52678965e-01	5.09357341e-02	-3.28700272e-20	-3.03053033e-21	0.00000000e+00	-3.03053033e-21	3.03053033e-21
2.76            	3.63118870e-02	1.81559435e-02	1.81559435e-02	-4.03509193e-01	-1.50827118e-01	-2.52682075e-01	5.09274785e-02	-3.28963467e-20	-3.03697984e-21	0.00000000e+00	-3.03697984e-21	3.03697984e-21
2.78            	3.63117673e-02	1.81558836e-02	1.81558836e-02	-4.03494132e-01	-1.50815182e-01	-2.52678950e-01	5.09318837e-02	-3.28608645e-20	-3.03616687e-21	0.00000000e+00	-3.03616687e-21	3.03616687e-21
2.8             	3.63077753e-02	1.81538877e-02	1.81538877e-02	-4.03470317e-01	-1.50805282e-01	-2.52665036e-01	5.09298771e-02	-3.28610194e-20	-3.03972313e-21	0.00000000e+00	-3.03972313e-21	3.03972313e-21
2.82            	3.63125018e-02	1.81562509e-02	1.81562509e-02	-4.03495835e-01	-1.50816549e-01	-2.52679286e-01	5.09313684e-02	-3.28676456e-20	-3.03886243e-21	0.00000000e+00	-3.03886243e-21	3.03886243e-21
2.84            	3.63054072e-02	1.81527036e-02	1.81527036e-02	-4.03475867e-01	-1.50802043e-01	-2.52673824e-01	5.09358902e-02	-3.28595321e-20	-3.03301557e-21	0.00000000e+00	-3.03301557e-21	3.03301557e-21
2.86            	3.63118216e-02	1.81559108e-02	1.81559108e-02	-4.03518618e-01	-1.50829789e-01	-2.52688829e-01	5.09295198e-02	-3.28961504e-20	-3.03553101e-21	0.00000000e+00	-3.03553101e-21	3.03553101e-21