# Field minima and maxima
# Time          	field           	min             	location(min)   	processor       	max             	location(max)   	processor       
0.02            	p               	5.89126708e-01	(5.85940683e-01 8.00535257e-02 6.64396404e-20)	12	1.58398964e+00	(4.92184277e-01 9.37429685e-02 1.31844649e-19)	12
0.04            	p               	5.12292670e-01	(9.92190493e-01 8.86842054e-03 1.40699149e-18)	3	1.79598474e+00	(4.92184277e-01 9.37429685e-02 1.31844649e-19)	12
0.06            	p               	3.64338956e-01	(5.54690699e-01 8.55293028e-02 -9.92063244e-20)	12	1.80352957e+00	(5.46844863e-02 1.70820867e-02 -3.65158145e-20)	13
0.08            	p               	3.11609354e-01	(5.70315691e-01 8.27914143e-02 1.40075218e-19)	12	1.88050358e+00	(5.46844863e-02 1.70820867e-02 -3.65158145e-20)	13
0.1             	p               	3.16188859e-01	(5.70315691e-01 8.27914143e-02 1.40075218e-19)	12	1.92876922e+00	(5.46844863e-02 1.70820867e-02 -3.65158145e-20)	13
0.12            	p               	3.18857397e-01	(5.70315691e-01 8.27914143e-02 1.40075218e-19)	12	1.94668667e+00	(5.46844863e-02 1.70820867e-02 -3.65158145e-20)	13
0.14            	p               	3.17771371e-01	(5.70315691e-01 8.27914143e-02 1.40075218e-19)	12	1.95058324e+00	(5.46844863e-02 1.70820867e-02 -3.65158145e-20)	13
0.16            	p               	3.22209155e-01	(5.70315691e-01 8.27914143e-02 1.40075218e-19)	12	1.94756110e+00	(5.46844863e-02 1.70820867e-02 -3.65158145e-20)	13
0.18            	p               	3.21807346e-01	(5.70315691e-01 8.27914143e-02 1.40075218e-19)	12	1.94854689e+00	(5.46844863e-02 1.70820867e-02 -3.65158145e-20)	13
0.2             	p               	3.13286614e-01	(5.70315691e-01 8.27914143e-02 1.40075218e-19)	12	1.94626726e+00	(5.46844863e-02 1.70820867e-02 -3.65158145e-20)	13
0.22            	p               	3.15446752e-01	(5.70315691e-01 8.27914143e-02 1.40075218e-19)	12	1.94534256e+00	(5.46844863e-02 1.70820867e-02 -3.65158145e-20)	13
0.24            	p               	3.10915930e-01	(5.70315691e-01 8.27914143e-02 1.40075218e-19)	12	1.94469591e+00	(5.46844863e-02 1.70820867e-02 -3.65158145e-20)	13
0.26            	p               	3.15659650e-01	(5.70315691e-01 8.27914143e-02 1.40075218e-19)	12	1.94729044e+00	(5.46844863e-02 1.70820867e-02 -3.65158145e-20)	13
0.28            	p               	3.11640908e-01	(5.70315691e-01 8.27914143e-02 1.40075218e-19)	12	1.94940244e+00	(5.46844863e-02 1.70820867e-02 -3.65158145e-20)	13
0.3             	p               	3.14589577e-01	(5.70315691e-01 8.27914143e-02 1.40075218e-19)	12	1.94618529e+00	(5.46844863e-02 1.70820867e-02 -3.65158145e-20)	13
0.32            	p               	3.17202365e-01	(5.70315691e-01 8.27914143e-02 1.40075218e-19)	12	1.94504958e+00	(5.46844863e-02 1.70820867e-02 -3.65158145e-20)	13
0.34            	p               	3.15436683e-01	(5.70315691e-01 8.27914143e-02 1.40075218e-19)	12	1.94353910e+00	(5.46844863e-02 1.70820867e-02 -3.65158145e-20)	13
0.36            	p               	3.24979460e-01	(5.70315691e-01 8.27914143e-02 1.40075218e-19)	12	1.94819252e+00	(5.46844863e-02 1.70820867e-02 -3.65158145e-20)	13
0.38            	p               	3.19281649e-01	(5.70315691e-01 8.27914143e-02 1.40075218e-19)	12	1.94807342e+00	(5.46844863e-02 1.70820867e-02 -3.65158145e-20)	13
0.4             	p               	3.30111298e-01	(5.70315691e-01 8.27914143e-02 1.40075218e-19)	12	1.94729136e+00	(5.46844863e-02 1.70820867e-02 -3.65158145e-20)	13
0.42            	p               	3.24653210e-01	(5.70315691e-01 8.27914143e-02 1.40075218e-19)	12	1.94526143e+00	(5.46844863e-02 1.70820867e-02 -3.65158145e-20)	13
0.44            	p               	3.32513220e-01	(5.70315691e-01 8.27914143e-02 1.40075218e-19)	12	1.94248591e+00	(5.46844863e-02 1.70820867e-02 -3.65158145e-20)	13
0.46            	p               	3.32651539e-01	(5.70315691e-01 8.27914143e-02 1.40075218e-19)	12	1.94884078e+00	(5.46844863e-02 1.70820867e-02 -3.65158145e-20)	13
0.48            	p               	3.35456873e-01	(5.70315691e-01 8.27914143e-02 1.40075218e-19)	12	1.94872261e+00	(5.46844863e-02 1.70820867e-02 -3.65158145e-20)	13
0.5             	p               	3.41271732e-01	(5.70315691e-01 8.27914143e-02 1.40075218e-19)	12	1.94646628e+00	(5.46844863e-02 1.70820867e-02 -3.65158145e-20)	13
0.52            	p               	3.38972178e-01	(5.70315691e-01 8.27914143e-02 1.40075218e-19)	12	1.94505879e+00	(5.46844863e-02 1.70820867e-02 -3.65158145e-20)	13
0.54            	p               	3.48779772e-01	(5.70315691e-01 8.27914143e-02 1.40075218e-19)	12	1.94385388e+00	(5.46844863e-02 1.70820867e-02 -3.65158145e-20)	13
0.56            	p               	3.45476959e-01	(5.70315691e-01 8.27914143e-02 1.40075218e-19)	12	1.94775900e+00	(5.46844863e-02 1.70820867e-02 -3.65158145e-20)	13
0.58            	p               	3.54364282e-01	(5.70315691e-01 8.27914143e-02 1.40075218e-19)	12	1.94881360e+00	(5.46844863e-02 1.70820867e-02 -3.65158145e-20)	13
0.6             	p               	3.53532078e-01	(5.70315691e-01 8.27914143e-02 1.40075218e-19)	12	1.94674389e+00	(5.46844863e-02 1.70820867e-02 -3.65158145e-20)	13
0.62            	p               	3.57538957e-01	(5.70315691e-01 8.27914143e-02 1.40075218e-19)	12	1.94530903e+00	(5.46844863e-02 1.70820867e-02 -3.65158145e-20)	13
0.64            	p               	3.63387392e-01	(5.70315691e-01 8.27914143e-02 1.40075218e-19)	12	1.94423780e+00	(5.46844863e-02 1.70820867e-02 -3.65158145e-20)	13
0.66            	p               	3.63707608e-01	(5.70315691e-01 8.27914143e-02 1.40075218e-19)	12	1.94661686e+00	(5.46844863e-02 1.70820867e-02 -3.65158145e-20)	13
0.68            	p               	3.73260078e-01	(5.70315691e-01 8.27914143e-02 1.40075218e-19)	12	1.94858413e+00	(5.46844863e-02 1.70820867e-02 -3.65158145e-20)	13
0.7             	p               	3.72708599e-01	(5.70315691e-01 8.27914143e-02 1.40075218e-19)	12	1.94770746e+00	(5.46844863e-02 1.70820867e-02 -3.65158145e-20)	13
0.72            	p               	3.79412117e-01	(5.70315691e-01 8.27914143e-02 1.40075218e-19)	12	1.94526170e+00	(5.46844863e-02 1.70820867e-02 -3.65158145e-20)	13
0.74            	p               	3.82655349e-01	(5.70315691e-01 8.27914143e-02 1.40075218e-19)	12	1.94517202e+00	(5.46844863e-02 1.70820867e-02 -3.65158145e-20)	13
0.76            	p               	3.85018617e-01	(5.70315691e-01 8.27914143e-02 1.40075218e-19)	12	1.94509257e+00	(5.46844863e-02 1.70820867e-02 -3.65158145e-20)	13
0.78            	p               	3.91227355e-01	(5.70315691e-01 8.27914143e-02 1.40075218e-19)	12	1.94799387e+00	(5.46844863e-02 1.70820867e-02 -3.65158145e-20)	13
0.8             	p               	3.89609487e-01	(5.70315691e-01 8.27914143e-02 1.40075218e-19)	12	1.94882999e+00	(5.46844863e-02 1.70820867e-02 -3.65158145e-20)	13
0.82            	p               	3.94800309e-01	(5.70315691e-01 8.27914143e-02 1.40075218e-19)	12	1.94553891e+00	(5.46844863e-02 1.70820867e-02 -3.65158145e-20)	13
0.84            	p               	3.92665284e-01	(5.70315691e-01 8.27914143e-02 1.40075218e-19)	12	1.94561803e+00	(5.46844863e-02 1.70820867e-02 -3.65158145e-20)	13
0.86            	p               	3.95063506e-01	(5.70315691e-01 8.27914143e-02 1.40075218e-19)	12	1.94439131e+00	(5.46844863e-02 1.70820867e-02 -3.65158145e-20)	13
0.88            	p               	3.96017640e-01	(5.70315691e-01 8.27914143e-02 1.40075218e-19)	12	1.94718218e+00	(5.46844863e-02 1.70820867e-02 -3.65158145e-20)	13
0.9             	p               	3.94224939e-01	(5.70315691e-01 8.27914143e-02 1.40075218e-19)	12	1.94923467e+00	(5.46844863e-02 1.70820867e-02 -3.65158145e-20)	13
0.92            	p               	3.97720240e-01	(5.70315691e-01 8.27914143e-02 1.40075218e-19)	12	1.94648624e+00	(5.46844863e-02 1.70820867e-02 -3.65158145e-20)	13
0.94            	p               	3.92634539e-01	(5.70315691e-01 8.27914143e-02 1.40075218e-19)	12	1.94537244e+00	(5.46844863e-02 1.70820867e-02 -3.65158145e-20)	13
0.96            	p               	3.97538502e-01	(5.70315691e-01 8.27914143e-02 1.40075218e-19)	12	1.94488703e+00	(5.46844863e-02 1.70820867e-02 -3.65158145e-20)	13
0.98            	p               	3.92660014e-01	(5.70315691e-01 8.27914143e-02 1.40075218e-19)	12	1.94595953e+00	(5.46844863e-02 1.70820867e-02 -3.65158145e-20)	13
1               	p               	3.96065181e-01	(5.70315691e-01 8.27914143e-02 1.40075218e-19)	12	1.94869016e+00	(5.46844863e-02 1.70820867e-02 -3.65158145e-20)	13
1.02            	p               	3.96003017e-01	(5.70315691e-01 8.27914143e-02 1.40075218e-19)	12	1.94787996e+00	(5.46844863e-02 1.70820867e-02 -3.65158145e-20)	13
1.04            	p               	3.93468052e-01	(5.70315691e-01 8.27914143e-02 1.40075218e-19)	12	1.94525257e+00	(5.46844863e-02 1.70820867e-02 -3.65158145e-20)	13
1.06            	p               	3.98543964e-01	(5.70315691e-01 8.27914143e-02 1.40075218e-19)	12	1.94548883e+00	(5.46844863e-02 1.70820867e-02 -3.65158145e-20)	13
1.08            	p               	3.92722044e-01	(5.70315691e-01 8.27914143e-02 1.40075218e-19)	12	1.94476087e+00	(5.46844863e-02 1.70820867e-02 -3.65158145e-20)	13
1.1             	p               	4.00350005e-01	(5.70315691e-01 8.27914143e-02 1.40075218e-19)	12	1.94784557e+00	(5.46844863e-02 1.70820867e-02 -3.65158145e-20)	13
1.12            	p               	3.91545249e-01	(5.70315691e-01 8.27914143e-02 1.40075218e-19)	12	1.94904334e+00	(5.46844863e-02 1.70820867e-02 -3.65158145e-20)	13
1.14            	p               	3.99463824e-01	(5.70315691e-01 8.27914143e-02 1.40075218e-19)	12	1.94565813e+00	(5.46844863e-02 1.70820867e-02 -3.65158145e-20)	13
1.16            	p               	3.91970467e-01	(5.70315691e-01 8.27914143e-02 1.40075218e-19)	12	1.94559702e+00	(5.46844863e-02 1.70820867e-02 -3.65158145e-20)	13
1.18            	p               	3.97205859e-01	(5.70315691e-01 8.27914143e-02 1.40075218e-19)	12	1.94446908e+00	(5.46844863e-02 1.70820867e-02 -3.65158145e-20)	13
1.2             	p               	3.92557574e-01	(5.54690699e-01 8.55293028e-02 -9.92063244e-20)	12	1.94688937e+00	(5.46844863e-02 1.70820867e-02 -3.65158145e-20)	13
1.22            	p               	3.94507434e-01	(5.70315691e-01 8.27914143e-02 1.40075218e-19)	12	1.94922534e+00	(5.46844863e-02 1.70820867e-02 -3.65158145e-20)	13
1.24            	p               	3.92657108e-01	(5.54690699e-01 8.55293028e-02 -9.92063244e-20)	12	1.94675477e+00	(5.46844863e-02 1.70820867e-02 -3.65158145e-20)	13
1.26            	p               	3.92137896e-01	(5.70315691e-01 8.27914143e-02 1.40075218e-19)	12	1.94532887e+00	(5.46844863e-02 1.70820867e-02 -3.65158145e-20)	13
1.28            	p               	3.99474256e-01	(5.54690699e-01 8.55293028e-02 -9.92063244e-20)	12	1.94507486e+00	(5.46844863e-02 1.70820867e-02 -3.65158145e-20)	13
1.3             	p               	3.91770311e-01	(5.70315691e-01 8.27914143e-02 1.40075218e-19)	12	1.94561521e+00	(5.46844863e-02 1.70820867e-02 -3.65158145e-20)	13
1.32            	p               	3.99275023e-01	(5.70315691e-01 8.27914143e-02 1.40075218e-19)	12	1.94852172e+00	(5.46844863e-02 1.70820867e-02 -3.65158145e-20)	13
1.34            	p               	3.92539440e-01	(5.70315691e-01 8.27914143e-02 1.40075218e-19)	12	1.94819806e+00	(5.46844863e-02 1.70820867e-02 -3.65158145e-20)	13
1.36            	p               	3.95753640e-01	(5.70315691e-01 8.27914143e-02 1.40075218e-19)	12	1.94528322e+00	(5.46844863e-02 1.70820867e-02 -3.65158145e-20)	13
1.38            	p               	3.91211921e-01	(5.54690699e-01 8.55293028e-02 -9.92063244e-20)	12	1.94558591e+00	(5.46844863e-02 1.70820867e-02 -3.65158145e-20)	13
1.4             	p               	3.93326830e-01	(5.70315691e-01 8.27914143e-02 1.40075218e-19)	12	1.94457807e+00	(5.46844863e-02 1.70820867e-02 -3.65158145e-20)	13
1.42            	p               	3.93961070e-01	(5.54690699e-01 8.55293028e-02 -9.92063244e-20)	12	1.94764927e+00	(5.46844863e-02 1.70820867e-02 -3.65158145e-20)	13
1.44            	p               	3.92007694e-01	(5.70315691e-01 8.27914143e-02 1.40075218e-19)	12	1.94919155e+00	(5.46844863e-02 1.70820867e-02 -3.65158145e-20)	13
1.46            	p               	3.99973368e-01	(5.54690699e-01 8.55293028e-02 -9.92063244e-20)	12	1.94585054e+00	(5.46844863e-02 1.70820867e-02 -3.65158145e-20)	13
1.48            	p               	3.91031329e-01	(5.70315691e-01 8.27914143e-02 1.40075218e-19)	12	1.94554282e+00	(5.46844863e-02 1.70820867e-02 -3.65158145e-20)	13
1.5             	p               	3.98781440e-01	(5.70315691e-01 8.27914143e-02 1.40075218e-19)	12	1.94456171e+00	(5.46844863e-02 1.70820867e-02 -3.65158145e-20)	13
1.52            	p               	3.92685304e-01	(5.54690699e-01 8.55293028e-02 -9.92063244e-20)	12	1.94662208e+00	(5.46844863e-02 1.70820867e-02 -3.65158145e-20)	13
1.54            	p               	3.95788008e-01	(5.70315691e-01 8.27914143e-02 1.40075218e-19)	12	1.94911354e+00	(5.46844863e-02 1.70820867e-02 -3.65158145e-20)	13
1.56            	p               	3.90874225e-01	(5.54690699e-01 8.55293028e-02 -9.92063244e-20)	12	1.94707890e+00	(5.46844863e-02 1.70820867e-02 -3.65158145e-20)	13
1.58            	p               	3.92621005e-01	(5.70315691e-01 8.27914143e-02 1.40075218e-19)	12	1.94528162e+00	(5.46844863e-02 1.70820867e-02 -3.65158145e-20)	13
1.6             	p               	3.94633964e-01	(5.54690699e-01 8.55293028e-02 -9.92063244e-20)	12	1.94523352e+00	(5.46844863e-02 1.70820867e-02 -3.65158145e-20)	13
1.62            	p               	3.91762297e-01	(5.70315691e-01 8.27914143e-02 1.40075218e-19)	12	1.94531652e+00	(5.46844863e-02 1.70820867e-02 -3.65158145e-20)	13
1.64            	p               	4.00214159e-01	(5.54690699e-01 8.55293028e-02 -9.92063244e-20)	12	1.94831992e+00	(5.46844863e-02 1.70820867e-02 -3.65158145e-20)	13
1.66            	p               	3.91290109e-01	(5.70315691e-01 8.27914143e-02 1.40075218e-19)	12	1.94850044e+00	(5.46844863e-02 1.70820867e-02 -3.65158145e-20)	13
1.68            	p               	3.99494391e-01	(5.70315691e-01 8.27914143e-02 1.40075218e-19)	12	1.94535061e+00	(5.46844863e-02 1.70820867e-02 -3.65158145e-20)	13
1.7             	p               	3.91815286e-01	(5.70315691e-01 8.27914143e-02 1.40075218e-19)	12	1.94562501e+00	(5.46844863e-02 1.70820867e-02 -3.65158145e-20)	13
1.72            	p               	3.97805153e-01	(5.70315691e-01 8.27914143e-02 1.40075218e-19)	12	1.94447155e+00	(5.46844863e-02 1.70820867e-02 -3.65158145e-20)	13
1.74            	p               	3.92682935e-01	(5.54690699e-01 8.55293028e-02 -9.92063244e-20)	12	1.94744069e+00	(5.46844863e-02 1.70820867e-02 -3.65158145e-20)	13
1.76            	p               	3.97138808e-01	(5.70315691e-01 8.27914143e-02 1.40075218e-19)	12	1.94927415e+00	(5.46844863e-02 1.70820867e-02 -3.65158145e-20)	13
1.78            	p               	3.92724379e-01	(5.54690699e-01 8.55293028e-02 -9.92063244e-20)	12	1.94608309e+00	(5.46844863e-02 1.70820867e-02 -3.65158145e-20)	13
1.8             	p               	3.96687485e-01	(5.70315691e-01 8.27914143e-02 1.40075218e-19)	12	1.94548022e+00	(5.46844863e-02 1.70820867e-02 -3.65158145e-20)	13
1.82            	p               	3.93911465e-01	(5.70315691e-01 8.27914143e-02 1.40075218e-19)	12	1.94469365e+00	(5.46844863e-02 1.70820867e-02 -3.65158145e-20)	13
1.84            	p               	3.97700815e-01	(5.70315691e-01 8.27914143e-02 1.40075218e-19)	12	1.94633142e+00	(5.46844863e-02 1.70820867e-02 -3.65158145e-20)	13
1.86            	p               	3.93285877e-01	(5.70315691e-01 8.27914143e-02 1.40075218e-19)	12	1.94896230e+00	(5.46844863e-02 1.70820867e-02 -3.65158145e-20)	13
1.88            	p               	3.97726214e-01	(5.70315691e-01 8.27914143e-02 1.40075218e-19)	12	1.94741833e+00	(5.46844863e-02 1.70820867e-02 -3.65158145e-20)	13
1.9             	p               	3.92234810e-01	(5.54690699e-01 8.55293028e-02 -9.92063244e-20)	12	1.94525144e+00	(5.46844863e-02 1.70820867e-02 -3.65158145e-20)	13
1.92            	p               	3.96134953e-01	(5.70315691e-01 8.27914143e-02 1.40075218e-19)	12	1.94537442e+00	(5.46844863e-02 1.70820867e-02 -3.65158145e-20)	13
1.94            	p               	3.91655639e-01	(5.54690699e-01 8.55293028e-02 -9.92063244e-20)	12	1.94504315e+00	(5.46844863e-02 1.70820867e-02 -3.65158145e-20)	13
1.96            	p               	3.94449493e-01	(5.70315691e-01 8.27914143e-02 1.40075218e-19)	12	1.94811740e+00	(5.46844863e-02 1.70820867e-02 -3.65158145e-20)	13
1.98            	p               	3.91788150e-01	(5.54690699e-01 8.55293028e-02 -9.92063244e-20)	12	1.94876739e+00	(5.46844863e-02 1.70820867e-02 -3.65158145e-20)	13
2               	p               	3.92173439e-01	(5.70315691e-01 8.27914143e-02 1.40075218e-19)	12	1.94545548e+00	(5.46844863e-02 1.70820867e-02 -3.65158145e-20)	13
2.02            	p               	3.95510339e-01	(5.54690699e-01 8.55293028e-02 -9.92063244e-20)	12	1.94562913e+00	(5.46844863e-02 1.70820867e-02 -3.65158145e-20)	13
2.04            	p               	3.91549589e-01	(5.70315691e-01 8.27914143e-02 1.40075218e-19)	12	1.94443056e+00	(5.46844863e-02 1.70820867e-02 -3.65158145e-20)	13
2.06            	p               	4.00974801e-01	(5.70315691e-01 8.27914143e-02 1.40075218e-19)	12	1.94721778e+00	(5.46844863e-02 1.70820867e-02 -3.65158145e-20)	13
2.08            	p               	3.91650326e-01	(5.70315691e-01 8.27914143e-02 1.40075218e-19)	12	1.94929270e+00	(5.46844863e-02 1.70820867e-02 -3.65158145e-20)	13
2.1             	p               	3.98113304e-01	(5.70315691e-01 8.27914143e-02 1.40075218e-19)	12	1.94635094e+00	(5.46844863e-02 1.70820867e-02 -3.65158145e-20)	13
2.12            	p               	3.91775866e-01	(5.54690699e-01 8.55293028e-02 -9.92063244e-20)	12	1.94541341e+00	(5.46844863e-02 1.70820867e-02 -3.65158145e-20)	13
2.14            	p               	3.94722304e-01	(5.70315691e-01 8.27914143e-02 1.40075218e-19)	12	1.94485107e+00	(5.46844863e-02 1.70820867e-02 -3.65158145e-20)	13
2.16            	p               	3.91832877e-01	(5.54690699e-01 8.55293028e-02 -9.92063244e-20)	12	1.94602583e+00	(5.46844863e-02 1.70820867e-02 -3.65158145e-20)	13
2.18            	p               	3.92821654e-01	(5.70315691e-01 8.27914143e-02 1.40075218e-19)	12	1.94878340e+00	(5.46844863e-02 1.70820867e-02 -3.65158145e-20)	13
2.2             	p               	3.96312560e-01	(5.54690699e-01 8.55293028e-02 -9.92063244e-20)	12	1.94776020e+00	(5.46844863e-02 1.70820867e-02 -3.65158145e-20)	13
2.22            	p               	3.91263410e-01	(5.70315691e-01 8.27914143e-02 1.40075218e-19)	12	1.94524542e+00	(5.46844863e-02 1.70820867e-02 -3.65158145e-20)	13
2.24            	p               	3.99495836e-01	(5.70315691e-01 8.27914143e-02 1.40075218e-19)	12	1.94548838e+00	(5.46844863e-02 1.70820867e-02 -3.65158145e-20)	13
2.26            	p               	3.92457854e-01	(5.70315691e-01 8.27914143e-02 1.40075218e-19)	12	1.94480807e+00	(5.46844863e-02 1.70820867e-02 -3.65158145e-20)	13
2.28            	p               	3.96493735e-01	(5.70315691e-01 8.27914143e-02 1.40075218e-19)	12	1.94791718e+00	(5.46844863e-02 1.70820867e-02 -3.65158145e-20)	13
2.3             	p               	3.91035066e-01	(5.54690699e-01 8.55293028e-02 -9.92063244e-20)	12	1.94898731e+00	(5.46844863e-02 1.70820867e-02 -3.65158145e-20)	13
2.32            	p               	3.93199399e-01	(5.70315691e-01 8.27914143e-02 1.40075218e-19)	12	1.94559914e+00	(5.46844863e-02 1.70820867e-02 -3.65158145e-20)	13
2.34            	p               	3.93828050e-01	(5.54690699e-01 8.55293028e-02 -9.92063244e-20)	12	1.94560566e+00	(5.46844863e-02 1.70820867e-02 -3.65158145e-20)	13
2.36            	p               	3.91924246e-01	(5.70315691e-01 8.27914143e-02 1.40075218e-19)	12	1.94445144e+00	(5.46844863e-02 1.70820867e-02 -3.65158145e-20)	13
2.38            	p               	4.00647571e-01	(5.70315691e-01 8.27914143e-02 1.40075218e-19)	12	1.94697600e+00	(5.46844863e-02 1.70820867e-02 -3.65158145e-20)	13
2.4             	p               	3.91811308e-01	(5.70315691e-01 8.27914143e-02 1.40075218e-19)	12	1.94925050e+00	(5.46844863e-02 1.70820867e-02 -3.65158145e-20)	13
2.42            	p               	3.97951200e-01	(5.70315691e-01 8.27914143e-02 1.40075218e-19)	12	1.94664895e+00	(5.46844863e-02 1.70820867e-02 -3.65158145e-20)	13
2.44            	p               	3.91475510e-01	(5.54690699e-01 8.55293028e-02 -9.92063244e-20)	12	1.94534950e+00	(5.46844863e-02 1.70820867e-02 -3.65158145e-20)	13
2.46            	p               	3.94567441e-01	(5.70315691e-01 8.27914143e-02 1.40075218e-19)	12	1.94501837e+00	(5.46844863e-02 1.70820867e-02 -3.65158145e-20)	13
2.48            	p               	3.91790200e-01	(5.54690699e-01 8.55293028e-02 -9.92063244e-20)	12	1.94571584e+00	(5.46844863e-02 1.70820867e-02 -3.65158145e-20)	13
2.5             	p               	3.92685312e-01	(5.70315691e-01 8.27914143e-02 1.40075218e-19)	12	1.94858776e+00	(5.46844863e-02 1.70820867e-02 -3.65158145e-20)	13
2.52            	p               	3.95762685e-01	(5.54690699e-01 8.55293028e-02 -9.92063244e-20)	12	1.94809315e+00	(5.46844863e-02 1.70820867e-02 -3.65158145e-20)	13
2.54            	p               	3.90978990e-01	(5.70315691e-01 8.27914143e-02 1.40075218e-19)	12	1.94526846e+00	(5.46844863e-02 1.70820867e-02 -3.65158145e-20)	13
2.56            	p               	4.00847595e-01	(5.70315691e-01 8.27914143e-02 1.40075218e-19)	12	1.94557004e+00	(5.46844863e-02 1.70820867e-02 -3.65158145e-20)	13
2.58            	p               	3.91491612e-01	(5.70315691e-01 8.27914143e-02 1.40075218e-19)	12	1.94462352e+00	(5.46844863e-02 1.70820867e-02 -3.65158145e-20)	13
2.6             	p               	3.98995853e-01	(5.70315691e-01 8.27914143e-02 1.40075218e-19)	12	1.94771648e+00	(5.46844863e-02 1.70820867e-02 -3.65158145e-20)	13
2.62            	p               	3.92587122e-01	(5.54690699e-01 8.55293028e-02 -9.92063244e-20)	12	1.94915164e+00	(5.46844863e-02 1.70820867e-02 -3.65158145e-20)	13
2.64            	p               	3.95789589e-01	(5.70315691e-01 8.27914143e-02 1.40075218e-19)	12	1.94578197e+00	(5.46844863e-02 1.70820867e-02 -3.65158145e-20)	13
2.66            	p               	3.90977537e-01	(5.54690699e-01 8.55293028e-02 -9.92063244e-20)	12	1.94556081e+00	(5.46844863e-02 1.70820867e-02 -3.65158145e-20)	13
2.68            	p               	3.93445294e-01	(5.70315691e-01 8.27914143e-02 1.40075218e-19)	12	1.94452748e+00	(5.46844863e-02 1.70820867e-02 -3.65158145e-20)	13
2.7             	p               	3.93187037e-01	(5.54690699e-01 8.55293028e-02 -9.92063244e-20)	12	1.94671228e+00	(5.46844863e-02 1.70820867e-02 -3.65158145e-20)	13
2.72            	p               	3.92160172e-01	(5.70315691e-01 8.27914143e-02 1.40075218e-19)	12	1.94915481e+00	(5.46844863e-02 1.70820867e-02 -3.65158145e-20)	13
2.74            	p               	3.97367191e-01	(5.54690699e-01 8.55293028e-02 -9.92063244e-20)	12	1.94697036e+00	(5.46844863e-02 1.70820867e-02 -3.65158145e-20)	13
2.76            	p               	3.90839254e-01	(5.70315691e-01 8.27914143e-02 1.40075218e-19)	12	1.94529587e+00	(5.46844863e-02 1.70820867e-02 -3.65158145e-20)	13
2.78            	p               	4.00405968e-01	(5.70315691e-01 8.27914143e-02 1.40075218e-19)	12	1.94518258e+00	(5.46844863e-02 1.70820867e-02 -3.65158145e-20)	13
2.8             	p               	3.91855232e-01	(5.70315691e-01 8.27914143e-02 1.40075218e-19)	12	1.94541198e+00	(5.46844863e-02 1.70820867e-02 -3.65158145e-20)	13
2.82            	p               	3.97916645e-01	(5.70315691e-01 8.27914143e-02 1.40075218e-19)	12	1.94838541e+00	(5.46844863e-02 1.70820867e-02 -3.65158145e-20)	13
2.84            	p               	3.91585005e-01	(5.54690699e-01 8.55293028e-02 -9.92063244e-20)	12	1.94840561e+00	(5.46844863e-02 1.70820867e-02 -3.65158145e-20)	13
2.86            	p               	3.94399606e-01	(5.70315691e-01 8.27914143e-02 1.40075218e-19)	12	1.94532470e+00	(5.46844863e-02 1.70820867e-02 -3.65158145e-20)	13
2.88            	p               	3.91790596e-01	(5.54690699e-01 8.55293028e-02 -9.92063244e-20)	12	1.94561687e+00	(5.46844863e-02 1.70820867e-02 -3.65158145e-20)	13
2.9             	p               	3.92583948e-01	(5.70315691e-01 8.27914143e-02 1.40075218e-19)	12	1.94449854e+00	(5.46844863e-02 1.70820867e-02 -3.65158145e-20)	13
2.92            	p               	3.95960817e-01	(5.54690699e-01 8.55293028e-02 -9.92063244e-20)	12	1.94751015e+00	(5.46844863e-02 1.70820867e-02 -3.65158145e-20)	13
2.94            	p               	3.91743875e-01	(5.70315691e-01 8.27914143e-02 1.40075218e-19)	12	1.94925439e+00	(5.46844863e-02 1.70820867e-02 -3.65158145e-20)	13
2.96            	p               	4.00383300e-01	(5.70315691e-01 8.27914143e-02 1.40075218e-19)	12	1.94600322e+00	(5.46844863e-02 1.70820867e-02 -3.65158145e-20)	13
2.98            	p               	3.91324894e-01	(5.70315691e-01 8.27914143e-02 1.40075218e-19)	12	1.94550139e+00	(5.46844863e-02 1.70820867e-02 -3.65158145e-20)	13
3               	p               	3.97622102e-01	(5.70315691e-01 8.27914143e-02 1.40075218e-19)	12	1.94464746e+00	(5.46844863e-02 1.70820867e-02 -3.65158145e-20)	13
3.02            	p               	3.91826079e-01	(5.54690699e-01 8.55293028e-02 -9.92063244e-20)	12	1.94642777e+00	(5.46844863e-02 1.70820867e-02 -3.65158145e-20)	13
3.04            	p               	3.94888691e-01	(5.70315691e-01 8.27914143e-02 1.40075218e-19)	12	1.94901536e+00	(5.46844863e-02 1.70820867e-02 -3.65158145e-20)	13
3.06            	p               	3.91601248e-01	(5.54690699e-01 8.55293028e-02 -9.92063244e-20)	12	1.94730695e+00	(5.46844863e-02 1.70820867e-02 -3.65158145e-20)	13
3.08            	p               	3.92252682e-01	(5.70315691e-01 8.27914143e-02 1.40075218e-19)	12	1.94525893e+00	(5.46844863e-02 1.70820867e-02 -3.65158145e-20)	13
3.1             	p               	3.95798565e-01	(5.54690699e-01 8.55293028e-02 -9.92063244e-20)	12	1.94533149e+00	(5.46844863e-02 1.70820867e-02 -3.65158145e-20)	13
3.12            	p               	3.91836313e-01	(5.70315691e-01 8.27914143e-02 1.40075218e-19)	12	1.94512816e+00	(5.46844863e-02 1.70820867e-02 -3.65158145e-20)	13
3.14            	p               	3.99171444e-01	(5.54690699e-01 8.55293028e-02 -9.92063244e-20)	12	1.94818297e+00	(5.46844863e-02 1.70820867e-02 -3.65158145e-20)	13
3.16            	p               	3.91546536e-01	(5.70315691e-01 8.27914143e-02 1.40075218e-19)	12	1.94868540e+00	(5.46844863e-02 1.70820867e-02 -3.65158145e-20)	13
3.18            	p               	3.99915275e-01	(5.54690699e-01 8.55293028e-02 -9.92063244e-20)	12	1.94541721e+00	(5.46844863e-02 1.70820867e-02 -3.65158145e-20)	13
3.2             	p               	3.91167208e-01	(5.70315691e-01 8.27914143e-02 1.40075218e-19)	12	1.94563105e+00	(5.46844863e-02 1.70820867e-02 -3.65158145e-20)	13
3.22            	p               	4.00071152e-01	(5.54690699e-01 8.55293028e-02 -9.92063244e-20)	12	1.94443687e+00	(5.46844863e-02 1.70820867e-02 -3.65158145e-20)	13
3.24            	p               	3.91318519e-01	(5.70315691e-01 8.27914143e-02 1.40075218e-19)	12	1.94729210e+00	(5.46844863e-02 1.70820867e-02 -3.65158145e-20)	13
3.26            	p               	3.99779487e-01	(5.54690699e-01 8.55293028e-02 -9.92063244e-20)	12	1.94929347e+00	(5.46844863e-02 1.70820867e-02 -3.65158145e-20)	13
3.28            	p               	3.90567875e-01	(5.70315691e-01 8.27914143e-02 1.40075218e-19)	12	1.94626043e+00	(5.46844863e-02 1.70820867e-02 -3.65158145e-20)	13
3.3             	p               	4.01354919e-01	(5.70315691e-01 8.27914143e-02 1.40075218e-19)	12	1.94543502e+00	(5.46844863e-02 1.70820867e-02 -3.65158145e-20)	13
3.32            	p               	3.90933498e-01	(5.70315691e-01 8.27914143e-02 1.40075218e-19)	12	1.94479765e+00	(5.46844863e-02 1.70820867e-02 -3.65158145e-20)	13
3.34            	p               	4.00369933e-01	(5.70315691e-01 8.27914143e-02 1.40075218e-19)	12	1.94612679e+00	(5.46844863e-02 1.70820867e-02 -3.65158145e-20)	13
3.36            	p               	3.91765102e-01	(5.70315691e-01 8.27914143e-02 1.40075218e-19)	12	1.94884368e+00	(5.46844863e-02 1.70820867e-02 -3.65158145e-20)	13
3.38            	p               	3.97631983e-01	(5.70315691e-01 8.27914143e-02 1.40075218e-19)	12	1.94764941e+00	(5.46844863e-02 1.70820867e-02 -3.65158145e-20)	13
3.4             	p               	3.91079431e-01	(5.54690699e-01 8.55293028e-02 -9.92063244e-20)	12	1.94524441e+00	(5.46844863e-02 1.70820867e-02 -3.65158145e-20)	13
3.42            	p               	3.94337161e-01	(5.70315691e-01 8.27914143e-02 1.40075218e-19)	12	1.94545471e+00	(5.46844863e-02 1.70820867e-02 -3.65158145e-20)	13
3.44            	p               	3.92022301e-01	(5.54690699e-01 8.55293028e-02 -9.92063244e-20)	12	1.94487947e+00	(5.46844863e-02 1.70820867e-02 -3.65158145e-20)	13
3.46            	p               	3.92628125e-01	(5.70315691e-01 8.27914143e-02 1.40075218e-19)	12	1.94798230e+00	(5.46844863e-02 1.70820867e-02 -3.65158145e-20)	13
3.48            	p               	3.96031877e-01	(5.54690699e-01 8.55293028e-02 -9.92063244e-20)	12	1.94892146e+00	(5.46844863e-02 1.70820867e-02 -3.65158145e-20)	13
3.5             	p               	3.91210108e-01	(5.70315691e-01 8.27914143e-02 1.40075218e-19)	12	1.94554802e+00	(5.46844863e-02 1.70820867e-02 -3.65158145e-20)	13
3.52            	p               	3.99990587e-01	(5.70315691e-01 8.27914143e-02 1.40075218e-19)	12	1.94561622e+00	(5.46844863e-02 1.70820867e-02 -3.65158145e-20)	13
3.54            	p               	3.92010940e-01	(5.70315691e-01 8.27914143e-02 1.40075218e-19)	12	1.94443832e+00	(5.46844863e-02 1.70820867e-02 -3.65158145e-20)	13
3.56            	p               	3.97198865e-01	(5.70315691e-01 8.27914143e-02 1.40075218e-19)	12	1.94705660e+00	(5.46844863e-02 1.70820867e-02 -3.65158145e-20)	13
3.58            	p               	3.91310042e-01	(5.54690699e-01 8.55293028e-02 -9.92063244e-20)	12	1.94927074e+00	(5.46844863e-02 1.70820867e-02 -3.65158145e-20)	13
3.6             	p               	3.93860752e-01	(5.70315691e-01 8.27914143e-02 1.40075218e-19)	12	1.94654911e+00	(5.46844863e-02 1.70820867e-02 -3.65158145e-20)	13