# Force and moment coefficients
# dragDir       : (1.00000000e+00 0.00000000e+00 0.00000000e+00)
# sideDir       : (0.00000000e+00 0.00000000e+00 -1.00000000e+00)
# liftDir       : (0.00000000e+00 1.00000000e+00 0.00000000e+00)
# rollAxis      : (1.00000000e+00 0.00000000e+00 0.00000000e+00)
# pitchAxis     : (0.00000000e+00 0.00000000e+00 -1.00000000e+00)
# yawAxis       : (0.00000000e+00 1.00000000e+00 0.00000000e+00)
# magUInf       : 2.00000000e+00
# lRef          : 1.00000000e+00
# Aref          : 1.00000000e-01
# CofR          : (2.50000000e-01 0.00000000e+00 0.00000000e+00)
#
# Time          	Cd              	Cd(f)           	Cd(r)           	Cl              	Cl(f)           	Cl(r)           	CmPitch         	CmRoll          	CmYaw           	Cs              	Cs(f)           	Cs(r)           
0.02            	2.91525000e-02	1.45762500e-02	1.45762500e-02	-3.87365240e-01	-1.36879207e-01	-2.50486032e-01	5.68034124e-02	1.13819538e-19	8.26134410e-21	0.00000000e+00	8.26134410e-21	-8.26134410e-21
0.04            	3.74394050e-02	1.87197025e-02	1.87197025e-02	-4.11531730e-01	-1.54105624e-01	-2.57426106e-01	5.16602410e-02	1.19903053e-19	1.06716972e-20	0.00000000e+00	1.06716972e-20	-1.06716972e-20
0.06            	3.44451680e-02	1.72225840e-02	1.72225840e-02	-3.98730930e-01	-1.46829748e-01	-2.51901182e-01	5.25357172e-02	1.18065672e-19	9.77440540e-21	0.00000000e+00	9.77440540e-21	-9.77440540e-21
0.08            	3.25800684e-02	1.62900342e-02	1.62900342e-02	-3.91046415e-01	-1.42314111e-01	-2.48732304e-01	5.32090963e-02	1.17310429e-19	9.15156616e-21	0.00000000e+00	9.15156616e-21	-9.15156616e-21
0.1             	3.16919191e-02	1.58459596e-02	1.58459596e-02	-3.89429357e-01	-1.40722734e-01	-2.48706623e-01	5.39919444e-02	1.17409869e-19	8.86595901e-21	0.00000000e+00	8.86595901e-21	-8.86595901e-21
0.12            	3.12380106e-02	1.56190053e-02	1.56190053e-02	-3.88300649e-01	-1.39754146e-01	-2.48546504e-01	5.43961791e-02	1.17822859e-19	8.75680832e-21	0.00000000e+00	8.75680832e-21	-8.75680832e-21
0.14            	3.14637869e-02	1.57318934e-02	1.57318934e-02	-3.88729098e-01	-1.40008946e-01	-2.48720153e-01	5.43556034e-02	1.18478854e-19	8.79301023e-21	0.00000000e+00	8.79301023e-21	-8.79301023e-21
0.16            	3.17895724e-02	1.58947862e-02	1.58947862e-02	-3.89132066e-01	-1.40528892e-01	-2.48603173e-01	5.40371405e-02	1.19428343e-19	8.83542739e-21	0.00000000e+00	8.83542739e-21	-8.83542739e-21
0.18            	3.20433059e-02	1.60216529e-02	1.60216529e-02	-3.88176243e-01	-1.40712966e-01	-2.47463277e-01	5.33751555e-02	1.19469069e-19	8.90838312e-21	0.00000000e+00	8.90838312e-21	-8.90838312e-21
0.2             	3.25031787e-02	1.62515893e-02	1.62515893e-02	-3.86837027e-01	-1.41046341e-01	-2.45790686e-01	5.23721724e-02	1.19070760e-19	9.08213813e-21	0.00000000e+00	9.08213813e-21	-9.08213813e-21
0.22            	3.30566179e-02	1.65283090e-02	1.65283090e-02	-3.85905240e-01	-1.41629851e-01	-2.44275388e-01	5.13227683e-02	1.18669035e-19	9.27723291e-21	0.00000000e+00	9.27723291e-21	-9.27723291e-21
0.24            	3.36413955e-02	1.68206977e-02	1.68206977e-02	-3.84878542e-01	-1.42286917e-01	-2.42591625e-01	5.01523536e-02	1.18267553e-19	9.47926040e-21	0.00000000e+00	9.47926040e-21	-9.47926040e-21
0.26            	3.42136503e-02	1.71068252e-02	1.71068252e-02	-3.83847733e-01	-1.42978239e-01	-2.40869494e-01	4.89456273e-02	1.17760999e-19	9.68602031e-21	0.00000000e+00	9.68602031e-21	-9.68602031e-21
0.28            	3.48055224e-02	1.74027612e-02	1.74027612e-02	-3.82932492e-01	-1.43761455e-01	-2.39171037e-01	4.77047906e-02	1.17327393e-19	9.87808596e-21	0.00000000e+00	9.87808596e-21	-9.87808596e-21
0.3             	3.54002535e-02	1.77001268e-02	1.77001268e-02	-3.81982026e-01	-1.44584189e-01	-2.37397837e-01	4.64068243e-02	1.16756817e-19	1.00824179e-20	0.00000000e+00	1.00824179e-20	-1.00824179e-20
0.32            	3.59641886e-02	1.79820943e-02	1.79820943e-02	-3.81111055e-01	-1.45421826e-01	-2.35689229e-01	4.51337014e-02	1.16118124e-19	1.02817444e-20	0.00000000e+00	1.02817444e-20	-1.02817444e-20
0.34            	3.64890382e-02	1.82445191e-02	1.82445191e-02	-3.80360246e-01	-1.46262925e-01	-2.34097321e-01	4.39171983e-02	1.15502348e-19	1.04802386e-20	0.00000000e+00	1.04802386e-20	-1.04802386e-20
0.36            	3.69544557e-02	1.84772279e-02	1.84772279e-02	-3.79845371e-01	-1.47085355e-01	-2.32760016e-01	4.28373304e-02	1.14862471e-19	1.06581587e-20	0.00000000e+00	1.06581587e-20	-1.06581587e-20
0.38            	3.73259507e-02	1.86629753e-02	1.86629753e-02	-3.79831102e-01	-1.47820542e-01	-2.32010560e-01	4.20950089e-02	1.14554612e-19	1.07799196e-20	0.00000000e+00	1.07799196e-20	-1.07799196e-20
0.4             	3.75503840e-02	1.87751920e-02	1.87751920e-02	-3.80585181e-01	-1.48355136e-01	-2.32230044e-01	4.19374540e-02	1.14444256e-19	1.08532013e-20	0.00000000e+00	1.08532013e-20	-1.08532013e-20
0.42            	3.76712269e-02	1.88356134e-02	1.88356134e-02	-3.81662246e-01	-1.48722763e-01	-2.32939483e-01	4.21083603e-02	1.14664113e-19	1.08557416e-20	0.00000000e+00	1.08557416e-20	-1.08557416e-20
0.44            	3.77695023e-02	1.88847512e-02	1.88847512e-02	-3.82827443e-01	-1.49056898e-01	-2.33770545e-01	4.23568236e-02	1.14767430e-19	1.08796869e-20	0.00000000e+00	1.08796869e-20	-1.08796869e-20
0.46            	3.78336779e-02	1.89168389e-02	1.89168389e-02	-3.84047913e-01	-1.49356576e-01	-2.34691338e-01	4.26673810e-02	1.15076229e-19	1.08685540e-20	0.00000000e+00	1.08685540e-20	-1.08685540e-20
0.48            	3.78939363e-02	1.89469681e-02	1.89469681e-02	-3.85267821e-01	-1.49654123e-01	-2.35613698e-01	4.29797873e-02	1.15271097e-19	1.08780528e-20	0.00000000e+00	1.08780528e-20	-1.08780528e-20
0.5             	3.79391986e-02	1.89695993e-02	1.89695993e-02	-3.86415911e-01	-1.49901216e-01	-2.36514696e-01	4.33067401e-02	1.15497533e-19	1.08686824e-20	0.00000000e+00	1.08686824e-20	-1.08686824e-20
0.52            	3.79620613e-02	1.89810306e-02	1.89810306e-02	-3.87525077e-01	-1.50113486e-01	-2.37411592e-01	4.36490529e-02	1.15716042e-19	1.08567192e-20	0.00000000e+00	1.08567192e-20	-1.08567192e-20
0.54            	3.79850684e-02	1.89925342e-02	1.89925342e-02	-3.88557047e-01	-1.50310489e-01	-2.38246558e-01	4.39680342e-02	1.15892942e-19	1.08573313e-20	0.00000000e+00	1.08573313e-20	-1.08573313e-20
0.56            	3.79776630e-02	1.89888315e-02	1.89888315e-02	-3.89579975e-01	-1.50476293e-01	-2.39103682e-01	4.43136944e-02	1.16171404e-19	1.08370211e-20	0.00000000e+00	1.08370211e-20	-1.08370211e-20
0.58            	3.79748141e-02	1.89874070e-02	1.89874070e-02	-3.90551103e-01	-1.50645916e-01	-2.39905187e-01	4.46296353e-02	1.16343611e-19	1.08394392e-20	0.00000000e+00	1.08394392e-20	-1.08394392e-20
0.6             	3.79562914e-02	1.89781457e-02	1.89781457e-02	-3.91502880e-01	-1.50787450e-01	-2.40715430e-01	4.49639901e-02	1.16629759e-19	1.08198596e-20	0.00000000e+00	1.08198596e-20	-1.08198596e-20
0.62            	3.79190425e-02	1.89595212e-02	1.89595212e-02	-3.92349520e-01	-1.50890060e-01	-2.41459461e-01	4.52847006e-02	1.16810120e-19	1.08095628e-20	0.00000000e+00	1.08095628e-20	-1.08095628e-20
0.64            	3.78761608e-02	1.89380804e-02	1.89380804e-02	-3.93144706e-01	-1.50990845e-01	-2.42153861e-01	4.55815076e-02	1.17036301e-19	1.07982677e-20	0.00000000e+00	1.07982677e-20	-1.07982677e-20
0.66            	3.78073371e-02	1.89036685e-02	1.89036685e-02	-3.93895601e-01	-1.51062584e-01	-2.42833018e-01	4.58852170e-02	1.17273352e-19	1.07791371e-20	0.00000000e+00	1.07791371e-20	-1.07791371e-20
0.68            	3.77399251e-02	1.88699626e-02	1.88699626e-02	-3.94597441e-01	-1.51136849e-01	-2.43460593e-01	4.61618719e-02	1.17432116e-19	1.07732369e-20	0.00000000e+00	1.07732369e-20	-1.07732369e-20
0.7             	3.76679014e-02	1.88339507e-02	1.88339507e-02	-3.95333140e-01	-1.51216809e-01	-2.44116331e-01	4.64497611e-02	1.17684642e-19	1.07471689e-20	0.00000000e+00	1.07471689e-20	-1.07471689e-20
0.72            	3.75848105e-02	1.87924052e-02	1.87924052e-02	-3.95937292e-01	-1.51241369e-01	-2.44695923e-01	4.67272773e-02	1.17786153e-19	1.07345516e-20	0.00000000e+00	1.07345516e-20	-1.07345516e-20
0.74            	3.74987982e-02	1.87493991e-02	1.87493991e-02	-3.96534969e-01	-1.51278355e-01	-2.45256614e-01	4.69891296e-02	1.17984520e-19	1.07078713e-20	0.00000000e+00	1.07078713e-20	-1.07078713e-20
0.76            	3.74002059e-02	1.87001030e-02	1.87001030e-02	-3.97086918e-01	-1.51284073e-01	-2.45802845e-01	4.72593858e-02	1.18113962e-19	1.06885330e-20	0.00000000e+00	1.06885330e-20	-1.06885330e-20
0.78            	3.73099751e-02	1.86549875e-02	1.86549875e-02	-3.97587527e-01	-1.51288793e-01	-2.46298734e-01	4.75049703e-02	1.18246610e-19	1.06694359e-20	0.00000000e+00	1.06694359e-20	-1.06694359e-20
0.8             	3.72232020e-02	1.86116010e-02	1.86116010e-02	-3.98190468e-01	-1.51328975e-01	-2.46861493e-01	4.77662593e-02	1.18434462e-19	1.06433085e-20	0.00000000e+00	1.06433085e-20	-1.06433085e-20
0.82            	3.71445849e-02	1.85722924e-02	1.85722924e-02	-3.98651176e-01	-1.51314803e-01	-2.47336373e-01	4.80107846e-02	1.18505945e-19	1.06250909e-20	0.00000000e+00	1.06250909e-20	-1.06250909e-20
0.84            	3.70596111e-02	1.85298055e-02	1.85298055e-02	-3.99127220e-01	-1.51309326e-01	-2.47817894e-01	4.82542839e-02	1.18674372e-19	1.05954285e-20	0.00000000e+00	1.05954285e-20	-1.05954285e-20
0.86            	3.69807272e-02	1.84903636e-02	1.84903636e-02	-3.99550654e-01	-1.51294235e-01	-2.48256418e-01	4.84810914e-02	1.18777526e-19	1.05766788e-20	0.00000000e+00	1.05766788e-20	-1.05766788e-20
0.88            	3.69010023e-02	1.84505012e-02	1.84505012e-02	-3.99921191e-01	-1.51256291e-01	-2.48664900e-01	4.87043045e-02	1.18909854e-19	1.05527730e-20	0.00000000e+00	1.05527730e-20	-1.05527730e-20
0.9             	3.68299007e-02	1.84149503e-02	1.84149503e-02	-4.00383675e-01	-1.51264782e-01	-2.49118892e-01	4.89270551e-02	1.19080449e-19	1.05276983e-20	0.00000000e+00	1.05276983e-20	-1.05276983e-20
0.92            	3.67755577e-02	1.83877788e-02	1.83877788e-02	-4.00762053e-01	-1.51245950e-01	-2.49516103e-01	4.91350765e-02	1.19167046e-19	1.05116366e-20	0.00000000e+00	1.05116366e-20	-1.05116366e-20
0.94            	3.67039770e-02	1.83519885e-02	1.83519885e-02	-4.01135117e-01	-1.51207934e-01	-2.49927183e-01	4.93596244e-02	1.19354071e-19	1.04743794e-20	0.00000000e+00	1.04743794e-20	-1.04743794e-20
0.96            	3.66505391e-02	1.83252695e-02	1.83252695e-02	-4.01448556e-01	-1.51182498e-01	-2.50266058e-01	4.95417803e-02	1.19411878e-19	1.04650601e-20	0.00000000e+00	1.04650601e-20	-1.04650601e-20
0.98            	3.65842139e-02	1.82921070e-02	1.82921070e-02	-4.01740465e-01	-1.51128624e-01	-2.50611841e-01	4.97416082e-02	1.19603560e-19	1.04298361e-20	0.00000000e+00	1.04298361e-20	-1.04298361e-20
1               	3.65299187e-02	1.82649594e-02	1.82649594e-02	-4.02039633e-01	-1.51102825e-01	-2.50936807e-01	4.99169910e-02	1.19678020e-19	1.04198597e-20	0.00000000e+00	1.04198597e-20	-1.04198597e-20
1.02            	3.64933925e-02	1.82466962e-02	1.82466962e-02	-4.02357897e-01	-1.51096817e-01	-2.51261080e-01	5.00821314e-02	1.19816170e-19	1.04002229e-20	0.00000000e+00	1.04002229e-20	-1.04002229e-20
1.04            	3.64457326e-02	1.82228663e-02	1.82228663e-02	-4.02599789e-01	-1.51047170e-01	-2.51552620e-01	5.02527250e-02	1.19912241e-19	1.03757797e-20	0.00000000e+00	1.03757797e-20	-1.03757797e-20
1.06            	3.64140329e-02	1.82070165e-02	1.82070165e-02	-4.02787018e-01	-1.51016742e-01	-2.51770276e-01	5.03767673e-02	1.19962299e-19	1.03682201e-20	0.00000000e+00	1.03682201e-20	-1.03682201e-20
1.08            	3.63685526e-02	1.81842763e-02	1.81842763e-02	-4.02987386e-01	-1.50972577e-01	-2.52014809e-01	5.05211157e-02	1.20101792e-19	1.03418852e-20	0.00000000e+00	1.03418852e-20	-1.03418852e-20
1.1             	3.63353355e-02	1.81676678e-02	1.81676678e-02	-4.03120333e-01	-1.50929373e-01	-2.52190960e-01	5.06307933e-02	1.20106720e-19	1.03426233e-20	0.00000000e+00	1.03426233e-20	-1.03426233e-20
1.12            	3.63102094e-02	1.81551047e-02	1.81551047e-02	-4.03365755e-01	-1.50938875e-01	-2.52426881e-01	5.07440029e-02	1.20293824e-19	1.03155181e-20	0.00000000e+00	1.03155181e-20	-1.03155181e-20
1.14            	3.62963877e-02	1.81481938e-02	1.81481938e-02	-4.03462673e-01	-1.50904748e-01	-2.52557925e-01	5.08265882e-02	1.20229764e-19	1.03217219e-20	0.00000000e+00	1.03217219e-20	-1.03217219e-20
1.16            	3.62722301e-02	1.81361150e-02	1.81361150e-02	-4.03581808e-01	-1.50882921e-01	-2.52698887e-01	5.09079829e-02	1.20372562e-19	1.02951775e-20	0.00000000e+00	1.02951775e-20	-1.02951775e-20
1.18            	3.62622841e-02	1.81311421e-02	1.81311421e-02	-4.03626085e-01	-1.50865714e-01	-2.52760371e-01	5.09473283e-02	1.20321280e-19	1.03042169e-20	0.00000000e+00	1.03042169e-20	-1.03042169e-20
1.2             	3.62449723e-02	1.81224861e-02	1.81224861e-02	-4.03640089e-01	-1.50835613e-01	-2.52804476e-01	5.09844315e-02	1.20397926e-19	1.02900654e-20	0.00000000e+00	1.02900654e-20	-1.02900654e-20
1.22            	3.62386426e-02	1.81193213e-02	1.81193213e-02	-4.03722941e-01	-1.50850691e-01	-2.52872250e-01	5.10107794e-02	1.20413111e-19	1.02919408e-20	0.00000000e+00	1.02919408e-20	-1.02919408e-20
1.24            	3.62479927e-02	1.81239963e-02	1.81239963e-02	-4.03752150e-01	-1.50858517e-01	-2.52893633e-01	5.10175579e-02	1.20394226e-19	1.02961339e-20	0.00000000e+00	1.02961339e-20	-1.02961339e-20
1.26            	3.62363161e-02	1.81181581e-02	1.81181581e-02	-4.03781350e-01	-1.50841568e-01	-2.52939782e-01	5.10491073e-02	1.20436080e-19	1.02830908e-20	0.00000000e+00	1.02830908e-20	-1.02830908e-20
1.28            	3.62432895e-02	1.81216447e-02	1.81216447e-02	-4.03755937e-01	-1.50844139e-01	-2.52911798e-01	5.10338296e-02	1.20366081e-19	1.02967174e-20	0.00000000e+00	1.02967174e-20	-1.02967174e-20
1.3             	3.62315599e-02	1.81157799e-02	1.81157799e-02	-4.03741301e-01	-1.50824765e-01	-2.52916536e-01	5.10458853e-02	1.20443323e-19	1.02813532e-20	0.00000000e+00	1.02813532e-20	-1.02813532e-20
1.32            	3.62318947e-02	1.81159474e-02	1.81159474e-02	-4.03720091e-01	-1.50827173e-01	-2.52892918e-01	5.10328724e-02	1.20374920e-19	1.02963704e-20	0.00000000e+00	1.02963704e-20	-1.02963704e-20
1.34            	3.62393281e-02	1.81196641e-02	1.81196641e-02	-4.03794597e-01	-1.50859028e-01	-2.52935570e-01	5.10382710e-02	1.20473806e-19	1.02843236e-20	0.00000000e+00	1.02843236e-20	-1.02843236e-20
1.36            	3.62386222e-02	1.81193111e-02	1.81193111e-02	-4.03777545e-01	-1.50841250e-01	-2.52936296e-01	5.10475231e-02	1.20400851e-19	1.02898538e-20	0.00000000e+00	1.02898538e-20	-1.02898538e-20
1.38            	3.62398192e-02	1.81199096e-02	1.81199096e-02	-4.03773917e-01	-1.50844240e-01	-2.52929677e-01	5.10427184e-02	1.20427263e-19	1.02861587e-20	0.00000000e+00	1.02861587e-20	-1.02861587e-20
1.4             	3.62334237e-02	1.81167118e-02	1.81167118e-02	-4.03762774e-01	-1.50833087e-01	-2.52929687e-01	5.10482997e-02	1.20423936e-19	1.02853615e-20	0.00000000e+00	1.02853615e-20	-1.02853615e-20
1.42            	3.62317602e-02	1.81158801e-02	1.81158801e-02	-4.03707675e-01	-1.50818591e-01	-2.52889084e-01	5.10352469e-02	1.20379614e-19	1.02942729e-20	0.00000000e+00	1.02942729e-20	-1.02942729e-20
1.44            	3.62331704e-02	1.81165852e-02	1.81165852e-02	-4.03793295e-01	-1.50853883e-01	-2.52939412e-01	5.10427646e-02	1.20466665e-19	1.02846476e-20	0.00000000e+00	1.02846476e-20	-1.02846476e-20
1.46            	3.62436176e-02	1.81218088e-02	1.81218088e-02	-4.03766895e-01	-1.50847540e-01	-2.52919354e-01	5.10359070e-02	1.20363287e-19	1.02989559e-20	0.00000000e+00	1.02989559e-20	-1.02989559e-20
1.48            	3.62361093e-02	1.81180546e-02	1.81180546e-02	-4.03784860e-01	-1.50841238e-01	-2.52943622e-01	5.10511917e-02	1.20460721e-19	1.02794015e-20	0.00000000e+00	1.02794015e-20	-1.02794015e-20
1.5             	3.62395924e-02	1.81197962e-02	1.81197962e-02	-4.03762026e-01	-1.50842117e-01	-2.52919909e-01	5.10388958e-02	1.20371923e-19	1.02954283e-20	0.00000000e+00	1.02954283e-20	-1.02954283e-20
1.52            	3.62299115e-02	1.81149557e-02	1.81149557e-02	-4.03730571e-01	-1.50819672e-01	-2.52910899e-01	5.10456131e-02	1.20449183e-19	1.02807931e-20	0.00000000e+00	1.02807931e-20	-1.02807931e-20
1.54            	3.62302451e-02	1.81151226e-02	1.81151226e-02	-4.03759463e-01	-1.50839327e-01	-2.52920136e-01	5.10404041e-02	1.20415364e-19	1.02909088e-20	0.00000000e+00	1.02909088e-20	-1.02909088e-20
1.56            	3.62408751e-02	1.81204375e-02	1.81204375e-02	-4.03793288e-01	-1.50856303e-01	-2.52936984e-01	5.10403405e-02	1.20431852e-19	1.02902213e-20	0.00000000e+00	1.02902213e-20	-1.02902213e-20
1.58            	3.62352168e-02	1.81176084e-02	1.81176084e-02	-4.03788267e-01	-1.50839731e-01	-2.52948536e-01	5.10544024e-02	1.20433523e-19	1.02834805e-20	0.00000000e+00	1.02834805e-20	-1.02834805e-20
1.6             	3.62415921e-02	1.81207960e-02	1.81207960e-02	-4.03766611e-01	-1.50845612e-01	-2.52920998e-01	5.10376928e-02	1.20378903e-19	1.02945389e-20	0.00000000e+00	1.02945389e-20	-1.02945389e-20
1.62            	3.62306089e-02	1.81153044e-02	1.81153044e-02	-4.03753092e-01	-1.50826625e-01	-2.52926467e-01	5.10499209e-02	1.20444106e-19	1.02812280e-20	0.00000000e+00	1.02812280e-20	-1.02812280e-20
1.64            	3.62314970e-02	1.81157485e-02	1.81157485e-02	-4.03716498e-01	-1.50824180e-01	-2.52892318e-01	5.10340691e-02	1.20358862e-19	1.02988490e-20	0.00000000e+00	1.02988490e-20	-1.02988490e-20
1.66            	3.62364305e-02	1.81182153e-02	1.81182153e-02	-4.03805372e-01	-1.50859921e-01	-2.52945451e-01	5.10427651e-02	1.20483589e-19	1.02826789e-20	0.00000000e+00	1.02826789e-20	-1.02826789e-20
1.68            	3.62409613e-02	1.81204807e-02	1.81204807e-02	-4.03768187e-01	-1.50841675e-01	-2.52926512e-01	5.10424184e-02	1.20366887e-19	1.02962486e-20	0.00000000e+00	1.02962486e-20	-1.02962486e-20
1.7             	3.62379081e-02	1.81189540e-02	1.81189540e-02	-4.03782661e-01	-1.50845774e-01	-2.52936887e-01	5.10455569e-02	1.20462626e-19	1.02798015e-20	0.00000000e+00	1.02798015e-20	-1.02798015e-20
1.72            	3.62380888e-02	1.81190444e-02	1.81190444e-02	-4.03744831e-01	-1.50834670e-01	-2.52910162e-01	5.10377461e-02	1.20377219e-19	1.02938566e-20	0.00000000e+00	1.02938566e-20	-1.02938566e-20
1.74            	3.62304684e-02	1.81152342e-02	1.81152342e-02	-4.03716071e-01	-1.50821852e-01	-2.52894219e-01	5.10361833e-02	1.20442902e-19	1.02828368e-20	0.00000000e+00	1.02828368e-20	-1.02828368e-20
1.76            	3.62379956e-02	1.81189978e-02	1.81189978e-02	-4.03754558e-01	-1.50849316e-01	-2.52905242e-01	5.10279626e-02	1.20405475e-19	1.02948452e-20	0.00000000e+00	1.02948452e-20	-1.02948452e-20
1.78            	3.62429743e-02	1.81214872e-02	1.81214872e-02	-4.03774422e-01	-1.50853868e-01	-2.52920554e-01	5.10333432e-02	1.20439577e-19	1.02862923e-20	0.00000000e+00	1.02862923e-20	-1.02862923e-20
1.8             	3.62435226e-02	1.81217613e-02	1.81217613e-02	-4.03741234e-01	-1.50838328e-01	-2.52902906e-01	5.10322888e-02	1.20388595e-19	1.02918843e-20	0.00000000e+00	1.02918843e-20	-1.02918843e-20
1.82            	3.62417406e-02	1.81208703e-02	1.81208703e-02	-4.03755879e-01	-1.50847599e-01	-2.52908280e-01	5.10303407e-02	1.20427383e-19	1.02857632e-20	0.00000000e+00	1.02857632e-20	-1.02857632e-20
1.84            	3.62378231e-02	1.81189115e-02	1.81189115e-02	-4.03691117e-01	-1.50818790e-01	-2.52872327e-01	5.10267683e-02	1.20374884e-19	1.02936737e-20	0.00000000e+00	1.02936737e-20	-1.02936737e-20
1.86            	3.62321863e-02	1.81160931e-02	1.81160931e-02	-4.03738008e-01	-1.50837136e-01	-2.52900873e-01	5.10318686e-02	1.20444849e-19	1.02851253e-20	0.00000000e+00	1.02851253e-20	-1.02851253e-20
1.88            	3.62449179e-02	1.81224590e-02	1.81224590e-02	-4.03769945e-01	-1.50856201e-01	-2.52913743e-01	5.10287710e-02	1.20403168e-19	1.02958927e-20	0.00000000e+00	1.02958927e-20	-1.02958927e-20
1.9             	3.62379794e-02	1.81189897e-02	1.81189897e-02	-4.03774414e-01	-1.50839359e-01	-2.52935055e-01	5.10478480e-02	1.20435708e-19	1.02831619e-20	0.00000000e+00	1.02831619e-20	-1.02831619e-20
1.92            	3.62417255e-02	1.81208628e-02	1.81208628e-02	-4.03766088e-01	-1.50845560e-01	-2.52920529e-01	5.10374846e-02	1.20404871e-19	1.02900576e-20	0.00000000e+00	1.02900576e-20	-1.02900576e-20
1.94            	3.62332683e-02	1.81166341e-02	1.81166341e-02	-4.03745282e-01	-1.50825683e-01	-2.52919599e-01	5.10469578e-02	1.20415355e-19	1.02864052e-20	0.00000000e+00	1.02864052e-20	-1.02864052e-20
1.96            	3.62284113e-02	1.81142057e-02	1.81142057e-02	-4.03729862e-01	-1.50822336e-01	-2.52907526e-01	5.10425947e-02	1.20429474e-19	1.02860998e-20	0.00000000e+00	1.02860998e-20	-1.02860998e-20
1.98            	3.62383206e-02	1.81191603e-02	1.81191603e-02	-4.03787214e-01	-1.50855140e-01	-2.52932074e-01	5.10384673e-02	1.20413140e-19	1.02949966e-20	0.00000000e+00	1.02949966e-20	-1.02949966e-20
2               	3.62365157e-02	1.81182578e-02	1.81182578e-02	-4.03797563e-01	-1.50843923e-01	-2.52953640e-01	5.10548583e-02	1.20452425e-19	1.02816775e-20	0.00000000e+00	1.02816775e-20	-1.02816775e-20
2.02            	3.62403750e-02	1.81201875e-02	1.81201875e-02	-4.03766254e-01	-1.50839504e-01	-2.52926750e-01	5.10436231e-02	1.20368328e-19	1.02962417e-20	0.00000000e+00	1.02962417e-20	-1.02962417e-20
2.04            	3.62337083e-02	1.81168542e-02	1.81168542e-02	-4.03778062e-01	-1.50837421e-01	-2.52940641e-01	5.10516099e-02	1.20457825e-19	1.02798752e-20	0.00000000e+00	1.02798752e-20	-1.02798752e-20
2.06            	3.62313851e-02	1.81156925e-02	1.81156925e-02	-4.03713205e-01	-1.50815514e-01	-2.52897690e-01	5.10410882e-02	1.20352107e-19	1.02985621e-20	0.00000000e+00	1.02985621e-20	-1.02985621e-20
2.08            	3.62303384e-02	1.81151692e-02	1.81151692e-02	-4.03786085e-01	-1.50845624e-01	-2.52940460e-01	5.10474180e-02	1.20483299e-19	1.02804629e-20	0.00000000e+00	1.02804629e-20	-1.02804629e-20
2.1             	3.62395652e-02	1.81197826e-02	1.81197826e-02	-4.03796952e-01	-1.50850671e-01	-2.52946281e-01	5.10478051e-02	1.20392381e-19	1.02954254e-20	0.00000000e+00	1.02954254e-20	-1.02954254e-20
2.12            	3.62357474e-02	1.81178737e-02	1.81178737e-02	-4.03784355e-01	-1.50837452e-01	-2.52946903e-01	5.10547252e-02	1.20453826e-19	1.02801680e-20	0.00000000e+00	1.02801680e-20	-1.02801680e-20
2.14            	3.62352536e-02	1.81176268e-02	1.81176268e-02	-4.03797185e-01	-1.50845003e-01	-2.52952181e-01	5.10535890e-02	1.20416880e-19	1.02876820e-20	0.00000000e+00	1.02876820e-20	-1.02876820e-20
2.16            	3.62324044e-02	1.81162022e-02	1.81162022e-02	-4.03727684e-01	-1.50819274e-01	-2.52908411e-01	5.10445684e-02	1.20401190e-19	1.02888701e-20	0.00000000e+00	1.02888701e-20	-1.02888701e-20
2.18            	3.62251696e-02	1.81125848e-02	1.81125848e-02	-4.03768376e-01	-1.50832140e-01	-2.52936236e-01	5.10520481e-02	1.20449749e-19	1.02837396e-20	0.00000000e+00	1.02837396e-20	-1.02837396e-20
2.2             	3.62416850e-02	1.81208425e-02	1.81208425e-02	-4.03786356e-01	-1.50856232e-01	-2.52930124e-01	5.10369457e-02	1.20389211e-19	1.02988371e-20	0.00000000e+00	1.02988371e-20	-1.02988371e-20
2.22            	3.62338200e-02	1.81169100e-02	1.81169100e-02	-4.03800496e-01	-1.50839155e-01	-2.52961341e-01	5.10610931e-02	1.20457214e-19	1.02795433e-20	0.00000000e+00	1.02795433e-20	-1.02795433e-20
2.24            	3.62398869e-02	1.81199434e-02	1.81199434e-02	-4.03775745e-01	-1.50844413e-01	-2.52931332e-01	5.10434596e-02	1.20371906e-19	1.02959411e-20	0.00000000e+00	1.02959411e-20	-1.02959411e-20
2.26            	3.62320894e-02	1.81160447e-02	1.81160447e-02	-4.03759611e-01	-1.50827830e-01	-2.52931781e-01	5.10519755e-02	1.20453509e-19	1.02798502e-20	0.00000000e+00	1.02798502e-20	-1.02798502e-20
2.28            	3.62266046e-02	1.81133023e-02	1.81133023e-02	-4.03737672e-01	-1.50821746e-01	-2.52915926e-01	5.10470903e-02	1.20399748e-19	1.02910727e-20	0.00000000e+00	1.02910727e-20	-1.02910727e-20
2.3             	3.62362617e-02	1.81181308e-02	1.81181308e-02	-4.03789888e-01	-1.50853751e-01	-2.52936137e-01	5.10411930e-02	1.20448785e-19	1.02884300e-20	0.00000000e+00	1.02884300e-20	-1.02884300e-20
2.32            	3.62352105e-02	1.81176052e-02	1.81176052e-02	-4.03809250e-01	-1.50846669e-01	-2.52962581e-01	5.10579562e-02	1.20437840e-19	1.02848652e-20	0.00000000e+00	1.02848652e-20	-1.02848652e-20
2.34            	3.62398079e-02	1.81199040e-02	1.81199040e-02	-4.03767005e-01	-1.50839025e-01	-2.52927980e-01	5.10444778e-02	1.20387696e-19	1.02926036e-20	0.00000000e+00	1.02926036e-20	-1.02926036e-20
2.36            	3.62331828e-02	1.81165914e-02	1.81165914e-02	-4.03789065e-01	-1.50840173e-01	-2.52948892e-01	5.10543594e-02	1.20446926e-19	1.02819990e-20	0.00000000e+00	1.02819990e-20	-1.02819990e-20
2.38            	3.62319977e-02	1.81159989e-02	1.81159989e-02	-4.03713063e-01	-1.50817246e-01	-2.52895818e-01	5.10392859e-02	1.20358654e-19	1.02971205e-20	0.00000000e+00	1.02971205e-20	-1.02971205e-20
2.4             	3.62299272e-02	1.81149636e-02	1.81149636e-02	-4.03776509e-01	-1.50842863e-01	-2.52933645e-01	5.10453909e-02	1.20471137e-19	1.02819320e-20	0.00000000e+00	1.02819320e-20	-1.02819320e-20
2.42            	3.62405907e-02	1.81202954e-02	1.81202954e-02	-4.03793505e-01	-1.50855059e-01	-2.52938446e-01	5.10416934e-02	1.20396573e-19	1.02954842e-20	0.00000000e+00	1.02954842e-20	-1.02954842e-20
2.44            	3.62369551e-02	1.81184776e-02	1.81184776e-02	-4.03777348e-01	-1.50837809e-01	-2.52939538e-01	5.10508644e-02	1.20444256e-19	1.02816823e-20	0.00000000e+00	1.02816823e-20	-1.02816823e-20
2.46            	3.62371614e-02	1.81185807e-02	1.81185807e-02	-4.03789540e-01	-1.50848292e-01	-2.52941248e-01	5.10464781e-02	1.20416355e-19	1.02878309e-20	0.00000000e+00	1.02878309e-20	-1.02878309e-20
2.48            	3.62337271e-02	1.81168635e-02	1.81168635e-02	-4.03726473e-01	-1.50821318e-01	-2.52905155e-01	5.10419187e-02	1.20395858e-19	1.02897242e-20	0.00000000e+00	1.02897242e-20	-1.02897242e-20
2.5             	3.62266442e-02	1.81133221e-02	1.81133221e-02	-4.03752027e-01	-1.50831024e-01	-2.52921003e-01	5.10449899e-02	1.20445158e-19	1.02841053e-20	0.00000000e+00	1.02841053e-20	-1.02841053e-20
2.52            	3.62420523e-02	1.81210261e-02	1.81210261e-02	-4.03780747e-01	-1.50857813e-01	-2.52922934e-01	5.10325606e-02	1.20386391e-19	1.02996609e-20	0.00000000e+00	1.02996609e-20	-1.02996609e-20
2.54            	3.62360309e-02	1.81180155e-02	1.81180155e-02	-4.03791141e-01	-1.50842199e-01	-2.52948942e-01	5.10533719e-02	1.20456176e-19	1.02799981e-20	0.00000000e+00	1.02799981e-20	-1.02799981e-20
2.56            	3.62420861e-02	1.81210430e-02	1.81210430e-02	-4.03761756e-01	-1.50844827e-01	-2.52916928e-01	5.10360503e-02	1.20358642e-19	1.02982754e-20	0.00000000e+00	1.02982754e-20	-1.02982754e-20
2.58            	3.62340523e-02	1.81170261e-02	1.81170261e-02	-4.03756558e-01	-1.50832415e-01	-2.52924143e-01	5.10458641e-02	1.20456265e-19	1.02795859e-20	0.00000000e+00	1.02795859e-20	-1.02795859e-20
2.6             	3.62306280e-02	1.81153140e-02	1.81153140e-02	-4.03714023e-01	-1.50820772e-01	-2.52893251e-01	5.10362398e-02	1.20370556e-19	1.02959544e-20	0.00000000e+00	1.02959544e-20	-1.02959544e-20
2.62            	3.62353780e-02	1.81176890e-02	1.81176890e-02	-4.03784577e-01	-1.50854113e-01	-2.52930463e-01	5.10381750e-02	1.20473800e-19	1.02835780e-20	0.00000000e+00	1.02835780e-20	-1.02835780e-20
2.64            	3.62398063e-02	1.81199031e-02	1.81199031e-02	-4.03787361e-01	-1.50848747e-01	-2.52938615e-01	5.10449341e-02	1.20407870e-19	1.02908552e-20	0.00000000e+00	1.02908552e-20	-1.02908552e-20
2.66            	3.62384386e-02	1.81192193e-02	1.81192193e-02	-4.03772454e-01	-1.50840834e-01	-2.52931621e-01	5.10453936e-02	1.20423202e-19	1.02861031e-20	0.00000000e+00	1.02861031e-20	-1.02861031e-20
2.68            	3.62363037e-02	1.81181519e-02	1.81181519e-02	-4.03778640e-01	-1.50842822e-01	-2.52935818e-01	5.10464982e-02	1.20427928e-19	1.02855119e-20	0.00000000e+00	1.02855119e-20	-1.02855119e-20
2.7             	3.62320174e-02	1.81160087e-02	1.81160087e-02	-4.03717219e-01	-1.50818466e-01	-2.52898754e-01	5.10401442e-02	1.20379756e-19	1.02931255e-20	0.00000000e+00	1.02931255e-20	-1.02931255e-20
2.72            	3.62291061e-02	1.81145530e-02	1.81145530e-02	-4.03769607e-01	-1.50840485e-01	-2.52929122e-01	5.10443185e-02	1.20461286e-19	1.02830139e-20	0.00000000e+00	1.02830139e-20	-1.02830139e-20
2.74            	3.62426346e-02	1.81213173e-02	1.81213173e-02	-4.03783202e-01	-1.50854623e-01	-2.52928578e-01	5.10369775e-02	1.20372948e-19	1.03003881e-20	0.00000000e+00	1.03003881e-20	-1.03003881e-20
2.76            	3.62348258e-02	1.81174129e-02	1.81174129e-02	-4.03790088e-01	-1.50838930e-01	-2.52951158e-01	5.10561143e-02	1.20463585e-19	1.02781830e-20	0.00000000e+00	1.02781830e-20	-1.02781830e-20
2.78            	3.62409212e-02	1.81204606e-02	1.81204606e-02	-4.03770054e-01	-1.50844940e-01	-2.52925114e-01	5.10400871e-02	1.20360556e-19	1.02977436e-20	0.00000000e+00	1.02977436e-20	-1.02977436e-20
2.8             	3.62307431e-02	1.81153715e-02	1.81153715e-02	-4.03750054e-01	-1.50824324e-01	-2.52925730e-01	5.10507030e-02	1.20459515e-19	1.02784941e-20	0.00000000e+00	1.02784941e-20	-1.02784941e-20
2.82            	3.62285183e-02	1.81142591e-02	1.81142591e-02	-4.03735078e-01	-1.50825165e-01	-2.52909913e-01	5.10423744e-02	1.20387441e-19	1.02939154e-20	0.00000000e+00	1.02939154e-20	-1.02939154e-20
2.84            	3.62370795e-02	1.81185397e-02	1.81185397e-02	-4.03803754e-01	-1.50858231e-01	-2.52945523e-01	5.10436462e-02	1.20469186e-19	1.02852115e-20	0.00000000e+00	1.02852115e-20	-1.02852115e-20
2.86            	3.62362058e-02	1.81181029e-02	1.81181029e-02	-4.03793883e-01	-1.50841598e-01	-2.52952285e-01	5.10553434e-02	1.20419159e-19	1.02868916e-20	0.00000000e+00	1.02868916e-20	-1.02868916e-20
2.88            	3.62386393e-02	1.81193197e-02	1.81193197e-02	-4.03779297e-01	-1.50842802e-01	-2.52936495e-01	5.10468464e-02	1.20409709e-19	1.02891827e-20	0.00000000e+00	1.02891827e-20	-1.02891827e-20
2.9             	3.62318769e-02	1.81159384e-02	1.81159384e-02	-4.03777316e-01	-1.50833794e-01	-2.52943521e-01	5.10548634e-02	1.20438061e-19	1.02830483e-20	0.00000000e+00	1.02830483e-20	-1.02830483e-20