# Region type : patch airfoilFront
# Faces         : 16
# Area          : 5.07713308e-02
# Scale factor  : 1.00000000e+00
# Time          	areaAverage(p)
0.02            	1.30459708e+00
0.04            	1.52659395e+00
0.06            	1.65837240e+00
0.08            	1.70230365e+00
0.1             	1.67857884e+00
0.12            	1.64307099e+00
0.14            	1.62052025e+00
0.16            	1.60992432e+00
0.18            	1.60457030e+00
0.2             	1.60311487e+00
0.22            	1.60528170e+00
0.24            	1.60997142e+00
0.26            	1.61607937e+00
0.28            	1.62260088e+00
0.3             	1.62926868e+00
0.32            	1.63635830e+00
0.34            	1.64342958e+00
0.36            	1.64972134e+00
0.38            	1.65512080e+00
0.4             	1.66017912e+00
0.42            	1.66538965e+00
0.44            	1.67051823e+00
0.46            	1.67509632e+00
0.48            	1.67908082e+00
0.5             	1.68275961e+00
0.52            	1.68630976e+00
0.54            	1.68949398e+00
0.56            	1.69219435e+00
0.58            	1.69464755e+00
0.6             	1.69697422e+00
0.62            	1.69881216e+00
0.64            	1.69996591e+00
0.66            	1.70081126e+00
0.68            	1.70182245e+00
0.7             	1.70261665e+00
0.72            	1.70280654e+00
0.74            	1.70291044e+00
0.76            	1.70327758e+00
0.78            	1.70372606e+00
0.8             	1.70412524e+00
0.82            	1.70441342e+00
0.84            	1.70436648e+00
0.86            	1.70402342e+00
0.88            	1.70382394e+00
0.9             	1.70405900e+00
0.92            	1.70432333e+00
0.94            	1.70408817e+00
0.96            	1.70369462e+00
0.98            	1.70366789e+00
1               	1.70389668e+00
1.02            	1.70408183e+00
1.04            	1.70421215e+00
1.06            	1.70427750e+00
1.08            	1.70410805e+00
1.1             	1.70385021e+00
1.12            	1.70382794e+00
1.14            	1.70409048e+00
1.16            	1.70431589e+00
1.18            	1.70418805e+00
1.2             	1.70381338e+00
1.22            	1.70364017e+00
1.24            	1.70374960e+00
1.26            	1.70390007e+00
1.28            	1.70401845e+00
1.3             	1.70422864e+00
1.32            	1.70433294e+00
1.34            	1.70415511e+00
1.36            	1.70390994e+00
1.38            	1.70394875e+00
1.4             	1.70423454e+00
1.42            	1.70434310e+00
1.44            	1.70400174e+00
1.46            	1.70366857e+00
1.48            	1.70368337e+00
1.5             	1.70385822e+00
1.52            	1.70399027e+00
1.54            	1.70417445e+00
1.56            	1.70431243e+00
1.58            	1.70418904e+00
1.6             	1.70392689e+00
1.62            	1.70387913e+00
1.64            	1.70413707e+00
1.66            	1.70435166e+00
1.68            	1.70412917e+00
1.7             	1.70372547e+00
1.72            	1.70363702e+00
1.74            	1.70381081e+00
1.76            	1.70396023e+00
1.78            	1.70410844e+00
1.8             	1.70429594e+00
1.82            	1.70428041e+00
1.84            	1.70403505e+00
1.86            	1.70387612e+00
1.88            	1.70403906e+00
1.9             	1.70430933e+00
1.92            	1.70425341e+00
1.94            	1.70384966e+00
1.96            	1.70364002e+00
1.98            	1.70375472e+00
2               	1.70392203e+00
2.02            	1.70403925e+00
2.04            	1.70423394e+00
2.06            	1.70432376e+00
2.08            	1.70414234e+00
2.1             	1.70390161e+00
2.12            	1.70394194e+00
2.14            	1.70421990e+00
2.16            	1.70433096e+00
2.18            	1.70400320e+00
2.2             	1.70366962e+00
2.22            	1.70367968e+00
2.24            	1.70386287e+00
2.26            	1.70399326e+00
2.28            	1.70416725e+00
2.3             	1.70431961e+00
2.32            	1.70421997e+00
2.34            	1.70395774e+00
2.36            	1.70388500e+00
2.38            	1.70412072e+00
2.4             	1.70434407e+00
2.42            	1.70415236e+00
2.44            	1.70374953e+00
2.46            	1.70364015e+00
2.48            	1.70380347e+00
2.5             	1.70395346e+00
2.52            	1.70409361e+00
2.54            	1.70428594e+00
2.56            	1.70429174e+00
2.58            	1.70405435e+00
2.6             	1.70387540e+00
2.62            	1.70401677e+00
2.64            	1.70429333e+00
2.66            	1.70427276e+00
2.68            	1.70387627e+00
2.7             	1.70363937e+00
2.72            	1.70373572e+00
2.74            	1.70390958e+00
2.76            	1.70403231e+00
2.78            	1.70422490e+00
2.8             	1.70432258e+00
2.82            	1.70415024e+00
2.84            	1.70390418e+00
2.86            	1.70392874e+00
2.88            	1.70420601e+00
2.9             	1.70433804e+00
2.92            	1.70402482e+00
2.94            	1.70367483e+00
2.96            	1.70366844e+00
2.98            	1.70385291e+00
3               	1.70398967e+00
3.02            	1.70416203e+00
3.04            	1.70431789e+00
3.06            	1.70422638e+00
3.08            	1.70396506e+00
3.1             	1.70388184e+00
3.12            	1.70411073e+00
3.14            	1.70434294e+00
3.16            	1.70416684e+00
3.18            	1.70375996e+00
3.2             	1.70363872e+00
3.22            	1.70379774e+00
3.24            	1.70394912e+00
3.26            	1.70408589e+00
3.28            	1.70428007e+00
3.3             	1.70429573e+00
3.32            	1.70406251e+00
3.34            	1.70387411e+00
3.36            	1.70400556e+00
3.38            	1.70428584e+00
3.4             	1.70428155e+00
3.42            	1.70388726e+00
3.44            	1.70363708e+00
3.46            	1.70372496e+00
3.48            	1.70390271e+00
3.5             	1.70403215e+00
3.52            	1.70422465e+00
3.54            	1.70431968e+00
3.56            	1.70414653e+00
3.58            	1.70390061e+00
3.6             	1.70392429e+00
3.62            	1.70420343e+00
3.64            	1.70434096e+00
3.66            	1.70402953e+00
3.68            	1.70367514e+00
3.7             	1.70366554e+00
3.72            	1.70385180e+00
3.74            	1.70398936e+00
3.76            	1.70415950e+00
3.78            	1.70431765e+00
3.8             	1.70423104e+00
3.82            	1.70397037e+00
3.84            	1.70388214e+00
3.86            	1.70410654e+00
3.88            	1.70434098e+00
3.9             	1.70417317e+00
3.92            	1.70376688e+00
3.94            	1.70363904e+00
3.96            	1.70379445e+00
3.98            	1.70394644e+00
4               	1.70408171e+00
4.02            	1.70427700e+00
4.04            	1.70429829e+00
4.06            	1.70406714e+00
4.08            	1.70387272e+00
4.1             	1.70399808e+00
4.12            	1.70428096e+00
4.14            	1.70428743e+00
4.16            	1.70389531e+00
4.18            	1.70363533e+00
4.2             	1.70371597e+00
4.22            	1.70389678e+00
4.24            	1.70403399e+00
4.26            	1.70422743e+00
4.28            	1.70431779e+00
4.3             	1.70414130e+00
4.32            	1.70389630e+00
4.34            	1.70392142e+00
4.36            	1.70420311e+00
4.38            	1.70434406e+00
4.4             	1.70403450e+00
4.42            	1.70367624e+00
4.44            	1.70366208e+00
4.46            	1.70384923e+00
4.48            	1.70398735e+00
4.5             	1.70415538e+00
4.52            	1.70431690e+00
4.54            	1.70423675e+00
4.56            	1.70397652e+00
4.58            	1.70388252e+00
4.6             	1.70410215e+00
4.62            	1.70433882e+00
4.64            	1.70417706e+00
4.66            	1.70377094e+00
4.68            	1.70364046e+00
4.7             	1.70379471e+00
4.72            	1.70394703e+00
4.74            	1.70408121e+00
4.76            	1.70427674e+00
4.78            	1.70430067e+00
4.8             	1.70407134e+00
4.82            	1.70387505e+00
4.84            	1.70399759e+00
4.86            	1.70428055e+00
4.88            	1.70428950e+00
4.9             	1.70389710e+00
4.92            	1.70363560e+00
4.94            	1.70371619e+00
4.96            	1.70389708e+00
4.98            	1.70403157e+00
5               	1.70422410e+00
5.02            	1.70431924e+00
5.04            	1.70414770e+00
5.06            	1.70390236e+00
5.08            	1.70392261e+00
5.1             	1.70420012e+00
5.12            	1.70434299e+00
5.14            	1.70403842e+00
5.16            	1.70368189e+00
5.18            	1.70366722e+00
5.2             	1.70385196e+00
5.22            	1.70398475e+00
5.24            	1.70414934e+00
5.26            	1.70431552e+00
5.28            	1.70424198e+00
5.3             	1.70398102e+00
5.32            	1.70387952e+00
5.34            	1.70409616e+00
5.36            	1.70433748e+00
5.38            	1.70418268e+00
5.4             	1.70377229e+00
5.42            	1.70363401e+00
5.44            	1.70378553e+00
5.46            	1.70394288e+00
5.48            	1.70408301e+00
5.5             	1.70427673e+00
5.52            	1.70429458e+00
5.54            	1.70406298e+00
5.56            	1.70387043e+00
5.58            	1.70399681e+00
5.6             	1.70428160e+00
5.62            	1.70428984e+00
5.64            	1.70389606e+00
5.66            	1.70363543e+00
5.68            	1.70371839e+00
5.7             	1.70390046e+00
5.72            	1.70403137e+00
5.74            	1.70422228e+00
5.76            	1.70432205e+00
5.78            	1.70415530e+00
5.8             	1.70390913e+00
5.82            	1.70392447e+00
5.84            	1.70419797e+00
5.86            	1.70434236e+00
5.88            	1.70404376e+00
5.9             	1.70368695e+00
5.92            	1.70366824e+00
5.94            	1.70385035e+00
5.96            	1.70398079e+00
5.98            	1.70414327e+00
6               	1.70431318e+00
6.02            	1.70424541e+00
6.04            	1.70398318e+00
6.06            	1.70387439e+00
6.08            	1.70408755e+00
6.1             	1.70433465e+00
6.12            	1.70419045e+00
6.14            	1.70377779e+00
6.16            	1.70362912e+00
6.18            	1.70377595e+00
6.2             	1.70393975e+00
6.22            	1.70408739e+00
6.24            	1.70427920e+00
6.26            	1.70429021e+00
6.28            	1.70405588e+00
6.3             	1.70386588e+00
6.32            	1.70399564e+00
6.34            	1.70428363e+00
6.36            	1.70429293e+00
6.38            	1.70389773e+00
6.4             	1.70363373e+00
6.42            	1.70371529e+00
6.44            	1.70389931e+00
6.46            	1.70402945e+00
6.48            	1.70421941e+00
6.5             	1.70432329e+00
6.52            	1.70416093e+00
6.54            	1.70391334e+00
6.56            	1.70392375e+00
6.58            	1.70419430e+00
6.6             	1.70434180e+00
6.62            	1.70404801e+00
6.64            	1.70369053e+00
6.66            	1.70366955e+00
6.68            	1.70385120e+00
6.7             	1.70398123e+00
6.72            	1.70414197e+00
6.74            	1.70431386e+00
6.76            	1.70425000e+00
6.78            	1.70398884e+00
6.8             	1.70387644e+00
6.82            	1.70408641e+00
6.84            	1.70433425e+00
6.86            	1.70419319e+00
6.88            	1.70377971e+00
6.9             	1.70363009e+00
6.92            	1.70377679e+00
6.94            	1.70393958e+00
6.96            	1.70408445e+00
6.98            	1.70427727e+00
7               	1.70429344e+00
7.02            	1.70406230e+00
7.04            	1.70387019e+00
7.06            	1.70399476e+00
7.08            	1.70428041e+00
7.1             	1.70429432e+00
7.12            	1.70390380e+00
7.14            	1.70363917e+00
7.16            	1.70371833e+00
7.18            	1.70389965e+00
7.2             	1.70402446e+00
7.22            	1.70421308e+00
7.24            	1.70432440e+00
7.26            	1.70416843e+00
7.28            	1.70391679e+00
7.3             	1.70391876e+00
7.32            	1.70418809e+00
7.34            	1.70434269e+00
7.36            	1.70405384e+00
7.38            	1.70369006e+00
7.4             	1.70366287e+00
7.42            	1.70384416e+00
7.44            	1.70397965e+00
7.46            	1.70414352e+00
7.48            	1.70431214e+00
7.5             	1.70424387e+00
7.52            	1.70398265e+00
7.54            	1.70387318e+00
7.56            	1.70408567e+00
7.58            	1.70433530e+00
7.6             	1.70419504e+00
7.62            	1.70378059e+00
7.64            	1.70362932e+00
7.66            	1.70377721e+00
7.68            	1.70394056e+00
7.7             	1.70408131e+00
7.72            	1.70427493e+00
7.74            	1.70429857e+00
7.76            	1.70407203e+00
7.78            	1.70387597e+00
7.8             	1.70399316e+00
7.82            	1.70427591e+00
7.84            	1.70429628e+00
7.86            	1.70391244e+00
7.88            	1.70364484e+00
7.9             	1.70371878e+00
7.92            	1.70389790e+00
7.94            	1.70401867e+00
7.96            	1.70420575e+00
7.98            	1.70432492e+00
8               	1.70417598e+00
8.02            	1.70391959e+00
8.04            	1.70391057e+00
8.06            	1.70417831e+00
8.08            	1.70434464e+00
8.1             	1.70406792e+00
8.12            	1.70369397e+00
8.14            	1.70365219e+00
8.16            	1.70383136e+00
8.18            	1.70397698e+00
8.2             	1.70414594e+00
8.22            	1.70431119e+00
8.24            	1.70423886e+00
8.26            	1.70397731e+00
8.28            	1.70386853e+00
8.3             	1.70408208e+00
8.32            	1.70433612e+00
8.34            	1.70420049e+00
8.36            	1.70378465e+00
8.38            	1.70362833e+00
8.4             	1.70377533e+00
8.42            	1.70394012e+00
8.44            	1.70407760e+00
8.46            	1.70427198e+00
8.48            	1.70430348e+00
8.5             	1.70408148e+00
8.52            	1.70388000e+00
8.54            	1.70398916e+00
8.56            	1.70427121e+00
8.58            	1.70430034e+00
8.6             	1.70392096e+00
8.62            	1.70364676e+00
8.64            	1.70371522e+00
8.66            	1.70389514e+00
8.68            	1.70401690e+00
8.7             	1.70420306e+00
8.72            	1.70432541e+00
8.74            	1.70418062e+00
8.76            	1.70392352e+00
8.78            	1.70390942e+00
8.8             	1.70417444e+00
8.82            	1.70434489e+00
8.84            	1.70407225e+00
8.86            	1.70369719e+00
8.88            	1.70365475e+00
8.9             	1.70383422e+00
8.92            	1.70397716e+00
8.94            	1.70414222e+00
8.96            	1.70431109e+00
8.98            	1.70424600e+00
9               	1.70398665e+00
9.02            	1.70387232e+00
9.04            	1.70407956e+00
9.06            	1.70433368e+00
9.08            	1.70420577e+00
9.1             	1.70379186e+00
9.12            	1.70363160e+00
9.14            	1.70377505e+00
9.16            	1.70393680e+00
9.18            	1.70406927e+00
9.2             	1.70426529e+00
9.22            	1.70430627e+00
9.24            	1.70408860e+00
9.26            	1.70387975e+00
9.28            	1.70398053e+00
9.3             	1.70426418e+00
9.32            	1.70430399e+00
9.34            	1.70392726e+00
9.36            	1.70364541e+00
9.38            	1.70370857e+00
9.4             	1.70389030e+00
9.42            	1.70401773e+00
9.44            	1.70420478e+00
9.46            	1.70432279e+00
9.48            	1.70417448e+00
9.5             	1.70391852e+00
9.52            	1.70390675e+00
9.54            	1.70417454e+00
9.56            	1.70434695e+00
9.58            	1.70407441e+00
9.6             	1.70369642e+00
9.62            	1.70365166e+00
9.64            	1.70383307e+00
9.66            	1.70397605e+00
9.68            	1.70413786e+00
9.7             	1.70430971e+00
9.72            	1.70425196e+00
9.74            	1.70399478e+00
9.76            	1.70387525e+00
9.78            	1.70407569e+00
9.8             	1.70432968e+00
9.82            	1.70421034e+00
9.84            	1.70380061e+00
9.86            	1.70363673e+00
9.88            	1.70377652e+00
9.9             	1.70393604e+00
9.92            	1.70406391e+00
9.94            	1.70426101e+00
9.96            	1.70431064e+00
9.98            	1.70409730e+00
10              	1.70388093e+00
