# Force and moment coefficients
# dragDir       : (1.00000000e+00 0.00000000e+00 0.00000000e+00)
# sideDir       : (0.00000000e+00 0.00000000e+00 -1.00000000e+00)
# liftDir       : (0.00000000e+00 1.00000000e+00 0.00000000e+00)
# rollAxis      : (1.00000000e+00 0.00000000e+00 0.00000000e+00)
# pitchAxis     : (0.00000000e+00 0.00000000e+00 -1.00000000e+00)
# yawAxis       : (0.00000000e+00 1.00000000e+00 0.00000000e+00)
# magUInf       : 2.00000000e+00
# lRef          : 1.00000000e+00
# Aref          : 1.00000000e-01
# CofR          : (2.50000000e-01 0.00000000e+00 0.00000000e+00)
#
# Time          	Cd              	Cd(f)           	Cd(r)           	Cl              	Cl(f)           	Cl(r)           	CmPitch         	CmRoll          	CmYaw           	Cs              	Cs(f)           	Cs(r)           
0.02            	1.72444077e-02	8.62220383e-03	8.62220383e-03	-3.68129643e-01	-1.15824419e-01	-2.52305225e-01	6.82404032e-02	1.70294169e-19	7.97714101e-21	0.00000000e+00	7.97714101e-21	-7.97714101e-21
0.04            	2.76069570e-02	1.38034785e-02	1.38034785e-02	-3.88645311e-01	-1.35387853e-01	-2.53257457e-01	5.89348018e-02	1.79784572e-19	1.27707830e-20	0.00000000e+00	1.27707830e-20	-1.27707830e-20
0.06            	3.30280674e-02	1.65140337e-02	1.65140337e-02	-4.04964399e-01	-1.46781873e-01	-2.58182525e-01	5.57003261e-02	1.87333667e-19	1.52785504e-20	0.00000000e+00	1.52785504e-20	-1.52785504e-20
0.08            	3.47890719e-02	1.73945359e-02	1.73945359e-02	-4.10666981e-01	-1.50233292e-01	-2.60433689e-01	5.51001982e-02	1.89971641e-19	1.60931786e-20	0.00000000e+00	1.60931786e-20	-1.60931786e-20
0.1             	3.42283238e-02	1.71141619e-02	1.71141619e-02	-4.05373994e-01	-1.48030846e-01	-2.57343148e-01	5.46561507e-02	1.87523142e-19	1.58337805e-20	0.00000000e+00	1.58337805e-20	-1.58337805e-20
0.12            	3.34064938e-02	1.67032469e-02	1.67032469e-02	-3.97353446e-01	-1.45052585e-01	-2.52300862e-01	5.36241385e-02	1.83812894e-19	1.54536077e-20	0.00000000e+00	1.54536077e-20	-1.54536077e-20
0.14            	3.29716896e-02	1.64858448e-02	1.64858448e-02	-3.91765509e-01	-1.43220563e-01	-2.48544946e-01	5.26621915e-02	1.81227954e-19	1.52524704e-20	0.00000000e+00	1.52524704e-20	-1.52524704e-20
0.16            	3.27663193e-02	1.63831597e-02	1.63831597e-02	-3.89145962e-01	-1.42366603e-01	-2.46779359e-01	5.22063778e-02	1.80016169e-19	1.51574676e-20	0.00000000e+00	1.51574676e-20	-1.51574676e-20
0.18            	3.26986644e-02	1.63493322e-02	1.63493322e-02	-3.87617501e-01	-1.41972983e-01	-2.45644518e-01	5.18357672e-02	1.79309114e-19	1.51261709e-20	0.00000000e+00	1.51261709e-20	-1.51261709e-20
0.2             	3.28610195e-02	1.64305097e-02	1.64305097e-02	-3.86176942e-01	-1.41928995e-01	-2.44247947e-01	5.11594759e-02	1.78642722e-19	1.52012752e-20	0.00000000e+00	1.52012752e-20	-1.52012752e-20
0.22            	3.32460654e-02	1.66230327e-02	1.66230327e-02	-3.84767106e-01	-1.42181877e-01	-2.42585229e-01	5.02016762e-02	1.77990542e-19	1.53793947e-20	0.00000000e+00	1.53793947e-20	-1.53793947e-20
0.24            	3.37471432e-02	1.68735716e-02	1.68735716e-02	-3.83600253e-01	-1.42679153e-01	-2.40921099e-01	4.91209730e-02	1.77450764e-19	1.56111897e-20	0.00000000e+00	1.56111897e-20	-1.56111897e-20
0.26            	3.42661525e-02	1.71330763e-02	1.71330763e-02	-3.82838217e-01	-1.43319267e-01	-2.39518951e-01	4.80998421e-02	1.77098251e-19	1.58512798e-20	0.00000000e+00	1.58512798e-20	-1.58512798e-20
0.28            	3.47908499e-02	1.73954250e-02	1.73954250e-02	-3.82191620e-01	-1.44049926e-01	-2.38141694e-01	4.70458841e-02	1.76799140e-19	1.60940011e-20	0.00000000e+00	1.60940011e-20	-1.60940011e-20
0.3             	3.53335453e-02	1.76667726e-02	1.76667726e-02	-3.81495199e-01	-1.44866756e-01	-2.36628443e-01	4.58808434e-02	1.76476981e-19	1.63450481e-20	0.00000000e+00	1.63450481e-20	-1.63450481e-20
0.32            	3.58839841e-02	1.79419920e-02	1.79419920e-02	-3.80905514e-01	-1.45751803e-01	-2.35153711e-01	4.47009542e-02	1.76204197e-19	1.65996772e-20	0.00000000e+00	1.65996772e-20	-1.65996772e-20
0.34            	3.63925069e-02	1.81962535e-02	1.81962535e-02	-3.80546994e-01	-1.46623508e-01	-2.33923486e-01	4.36499890e-02	1.76038348e-19	1.68349163e-20	0.00000000e+00	1.68349163e-20	-1.68349163e-20
0.36            	3.68188229e-02	1.84094115e-02	1.84094115e-02	-3.80376295e-01	-1.47396214e-01	-2.32980081e-01	4.27919335e-02	1.75959383e-19	1.70321271e-20	0.00000000e+00	1.70321271e-20	-1.70321271e-20
0.38            	3.71431547e-02	1.85715774e-02	1.85715774e-02	-3.80465295e-01	-1.48026067e-01	-2.32439228e-01	4.22065804e-02	1.76000554e-19	1.71821607e-20	0.00000000e+00	1.71821607e-20	-1.71821607e-20
0.4             	3.73786352e-02	1.86893176e-02	1.86893176e-02	-3.80936363e-01	-1.48533298e-01	-2.32403066e-01	4.19348840e-02	1.76218467e-19	1.72910922e-20	0.00000000e+00	1.72910922e-20	-1.72910922e-20
0.42            	3.75548345e-02	1.87774173e-02	1.87774173e-02	-3.81797990e-01	-1.48962481e-01	-2.32835509e-01	4.19365142e-02	1.76617050e-19	1.73726008e-20	0.00000000e+00	1.73726008e-20	-1.73726008e-20
0.44            	3.76881159e-02	1.88440580e-02	1.88440580e-02	-3.82873749e-01	-1.49333618e-01	-2.33540130e-01	4.21032560e-02	1.77114688e-19	1.74342559e-20	0.00000000e+00	1.74342559e-20	-1.74342559e-20
0.46            	3.77740489e-02	1.88870245e-02	1.88870245e-02	-3.84021431e-01	-1.49636516e-01	-2.34384915e-01	4.23741997e-02	1.77645598e-19	1.74740079e-20	0.00000000e+00	1.74740079e-20	-1.74740079e-20
0.48            	3.78189333e-02	1.89094666e-02	1.89094666e-02	-3.85189915e-01	-1.49881146e-01	-2.35308769e-01	4.27138117e-02	1.78186130e-19	1.74947710e-20	0.00000000e+00	1.74947710e-20	-1.74947710e-20
0.5             	3.78534594e-02	1.89267297e-02	1.89267297e-02	-3.86307962e-01	-1.50108059e-01	-2.36199903e-01	4.30459223e-02	1.78703331e-19	1.75107426e-20	0.00000000e+00	1.75107426e-20	-1.75107426e-20
0.52            	3.78879877e-02	1.89439939e-02	1.89439939e-02	-3.87380054e-01	-1.50332977e-01	-2.37047077e-01	4.33570498e-02	1.79199273e-19	1.75267151e-20	0.00000000e+00	1.75267151e-20	-1.75267151e-20
0.54            	3.79011621e-02	1.89505810e-02	1.89505810e-02	-3.88442561e-01	-1.50532565e-01	-2.37909996e-01	4.36887156e-02	1.79690781e-19	1.75328095e-20	0.00000000e+00	1.75328095e-20	-1.75328095e-20
0.56            	3.78914648e-02	1.89457324e-02	1.89457324e-02	-3.89461972e-01	-1.50697842e-01	-2.38764131e-01	4.40331446e-02	1.80162354e-19	1.75283236e-20	0.00000000e+00	1.75283236e-20	-1.75283236e-20
0.58            	3.78779265e-02	1.89389632e-02	1.89389632e-02	-3.90414896e-01	-1.50853998e-01	-2.39560898e-01	4.43534498e-02	1.80603169e-19	1.75220609e-20	0.00000000e+00	1.75220609e-20	-1.75220609e-20
0.6             	3.78577500e-02	1.89288750e-02	1.89288750e-02	-3.91360277e-01	-1.51003642e-01	-2.40356635e-01	4.46764964e-02	1.81040496e-19	1.75127274e-20	0.00000000e+00	1.75127274e-20	-1.75127274e-20
0.62            	3.78113203e-02	1.89056601e-02	1.89056601e-02	-3.92279998e-01	-1.51114148e-01	-2.41165849e-01	4.50258507e-02	1.81465952e-19	1.74912493e-20	0.00000000e+00	1.74912493e-20	-1.74912493e-20
0.64            	3.77458843e-02	1.88729422e-02	1.88729422e-02	-3.93063159e-01	-1.51187345e-01	-2.41875814e-01	4.53442347e-02	1.81828237e-19	1.74609791e-20	0.00000000e+00	1.74609791e-20	-1.74609791e-20
0.66            	3.76727985e-02	1.88363992e-02	1.88363992e-02	-3.93779560e-01	-1.51253515e-01	-2.42526045e-01	4.56362650e-02	1.82159639e-19	1.74271701e-20	0.00000000e+00	1.74271701e-20	-1.74271701e-20
0.68            	3.75994807e-02	1.87997404e-02	1.87997404e-02	-3.94556505e-01	-1.51325093e-01	-2.43231411e-01	4.59531590e-02	1.82519048e-19	1.73932538e-20	0.00000000e+00	1.73932538e-20	-1.73932538e-20
0.7             	3.75227949e-02	1.87613974e-02	1.87613974e-02	-3.95275054e-01	-1.51375637e-01	-2.43899417e-01	4.62618899e-02	1.82851444e-19	1.73577795e-20	0.00000000e+00	1.73577795e-20	-1.73577795e-20
0.72            	3.74397328e-02	1.87198664e-02	1.87198664e-02	-3.95813941e-01	-1.51394995e-01	-2.44418947e-01	4.65119760e-02	1.83100730e-19	1.73193556e-20	0.00000000e+00	1.73193556e-20	-1.73193556e-20
0.74            	3.73481609e-02	1.86740805e-02	1.86740805e-02	-3.96370378e-01	-1.51416396e-01	-2.44953982e-01	4.67687926e-02	1.83358133e-19	1.72769951e-20	0.00000000e+00	1.72769951e-20	-1.72769951e-20
0.76            	3.72613795e-02	1.86306897e-02	1.86306897e-02	-3.96993662e-01	-1.51439413e-01	-2.45554249e-01	4.70574183e-02	1.83646460e-19	1.72368506e-20	0.00000000e+00	1.72368506e-20	-1.72368506e-20
0.78            	3.71934018e-02	1.85967009e-02	1.85967009e-02	-3.97539353e-01	-1.51459526e-01	-2.46079827e-01	4.73101509e-02	1.83898893e-19	1.72054046e-20	0.00000000e+00	1.72054046e-20	-1.72054046e-20
0.8             	3.71313211e-02	1.85656606e-02	1.85656606e-02	-3.98033993e-01	-1.51489253e-01	-2.46544740e-01	4.75277432e-02	1.84127710e-19	1.71766865e-20	0.00000000e+00	1.71766865e-20	-1.71766865e-20
0.82            	3.70514995e-02	1.85257497e-02	1.85257497e-02	-3.98589605e-01	-1.51506729e-01	-2.47082876e-01	4.77880732e-02	1.84384732e-19	1.71397616e-20	0.00000000e+00	1.71397616e-20	-1.71397616e-20
0.84            	3.69585402e-02	1.84792701e-02	1.84792701e-02	-3.99100039e-01	-1.51479956e-01	-2.47620082e-01	4.80700631e-02	1.84620855e-19	1.70967593e-20	0.00000000e+00	1.70967593e-20	-1.70967593e-20
0.86            	3.68720253e-02	1.84360127e-02	1.84360127e-02	-3.99468170e-01	-1.51429670e-01	-2.48038500e-01	4.83044147e-02	1.84791150e-19	1.70567381e-20	0.00000000e+00	1.70567381e-20	-1.70567381e-20
0.88            	3.67909778e-02	1.83954889e-02	1.83954889e-02	-3.99856571e-01	-1.51395032e-01	-2.48461539e-01	4.85332534e-02	1.84970822e-19	1.70192461e-20	0.00000000e+00	1.70192461e-20	-1.70192461e-20
0.9             	3.67182479e-02	1.83591239e-02	1.83591239e-02	-4.00352990e-01	-1.51384522e-01	-2.48968467e-01	4.87919723e-02	1.85200461e-19	1.69856018e-20	0.00000000e+00	1.69856018e-20	-1.69856018e-20
0.92            	3.66553720e-02	1.83276860e-02	1.83276860e-02	-4.00803982e-01	-1.51373034e-01	-2.49430949e-01	4.90289577e-02	1.85409087e-19	1.69565158e-20	0.00000000e+00	1.69565158e-20	-1.69565158e-20
0.94            	3.65844124e-02	1.82922062e-02	1.82922062e-02	-4.01122427e-01	-1.51327228e-01	-2.49795198e-01	4.92339852e-02	1.85556397e-19	1.69236904e-20	0.00000000e+00	1.69236904e-20	-1.69236904e-20
0.96            	3.65016839e-02	1.82508419e-02	1.82508419e-02	-4.01451051e-01	-1.51263830e-01	-2.50187221e-01	4.94616958e-02	1.85708417e-19	1.68854208e-20	0.00000000e+00	1.68854208e-20	-1.68854208e-20
0.98            	3.64419118e-02	1.82209559e-02	1.82209559e-02	-4.01780488e-01	-1.51226746e-01	-2.50553743e-01	4.96634985e-02	1.85860812e-19	1.68577706e-20	0.00000000e+00	1.68577706e-20	-1.68577706e-20
1               	3.64101802e-02	1.82050901e-02	1.82050901e-02	-4.02042159e-01	-1.51211578e-01	-2.50830581e-01	4.98095014e-02	1.85981859e-19	1.68430918e-20	0.00000000e+00	1.68430918e-20	-1.68430918e-20
1.02            	3.63675466e-02	1.81837733e-02	1.81837733e-02	-4.02350071e-01	-1.51189691e-01	-2.51160380e-01	4.99853449e-02	1.86124297e-19	1.68233698e-20	0.00000000e+00	1.68233698e-20	-1.68233698e-20
1.04            	3.63157083e-02	1.81578542e-02	1.81578542e-02	-4.02690601e-01	-1.51160176e-01	-2.51530425e-01	5.01851241e-02	1.86281824e-19	1.67993898e-20	0.00000000e+00	1.67993898e-20	-1.67993898e-20
1.06            	3.62824616e-02	1.81412308e-02	1.81412308e-02	-4.02902492e-01	-1.51131954e-01	-2.51770538e-01	5.03192923e-02	1.86379843e-19	1.67840101e-20	0.00000000e+00	1.67840101e-20	-1.67840101e-20
1.08            	3.62509993e-02	1.81254996e-02	1.81254996e-02	-4.03020408e-01	-1.51094129e-01	-2.51926278e-01	5.04160746e-02	1.86434390e-19	1.67694559e-20	0.00000000e+00	1.67694559e-20	-1.67694559e-20
1.1             	3.62072109e-02	1.81036054e-02	1.81036054e-02	-4.03176659e-01	-1.51047839e-01	-2.52128820e-01	5.05404903e-02	1.86506671e-19	1.67491997e-20	0.00000000e+00	1.67491997e-20	-1.67491997e-20
1.12            	3.61745382e-02	1.80872691e-02	1.80872691e-02	-4.03354001e-01	-1.51014023e-01	-2.52339978e-01	5.06629775e-02	1.86588708e-19	1.67340855e-20	0.00000000e+00	1.67340855e-20	-1.67340855e-20
1.14            	3.61686720e-02	1.80843360e-02	1.80843360e-02	-4.03481034e-01	-1.51008508e-01	-2.52472526e-01	5.07320089e-02	1.86647472e-19	1.67313718e-20	0.00000000e+00	1.67313718e-20	-1.67313718e-20
1.16            	3.61600337e-02	1.80800168e-02	1.80800168e-02	-4.03610526e-01	-1.51011681e-01	-2.52598845e-01	5.07935816e-02	1.86707375e-19	1.67273758e-20	0.00000000e+00	1.67273758e-20	-1.67273758e-20
1.18            	3.61346113e-02	1.80673057e-02	1.80673057e-02	-4.03709047e-01	-1.50991069e-01	-2.52717978e-01	5.08634543e-02	1.86752949e-19	1.67156156e-20	0.00000000e+00	1.67156156e-20	-1.67156156e-20
1.2             	3.61105776e-02	1.80552888e-02	1.80552888e-02	-4.03711539e-01	-1.50947175e-01	-2.52764364e-01	5.09085948e-02	1.86754103e-19	1.67044978e-20	0.00000000e+00	1.67044978e-20	-1.67044978e-20
1.22            	3.61039398e-02	1.80519699e-02	1.80519699e-02	-4.03687323e-01	-1.50923091e-01	-2.52764232e-01	5.09205703e-02	1.86742900e-19	1.67014272e-20	0.00000000e+00	1.67014272e-20	-1.67014272e-20
1.24            	3.61075093e-02	1.80537546e-02	1.80537546e-02	-4.03706160e-01	-1.50927573e-01	-2.52778587e-01	5.09255068e-02	1.86751614e-19	1.67030784e-20	0.00000000e+00	1.67030784e-20	-1.67030784e-20
1.26            	3.61089380e-02	1.80544690e-02	1.80544690e-02	-4.03751797e-01	-1.50937416e-01	-2.52814381e-01	5.09384824e-02	1.86772726e-19	1.67037393e-20	0.00000000e+00	1.67037393e-20	-1.67037393e-20
1.28            	3.61084210e-02	1.80542105e-02	1.80542105e-02	-4.03797009e-01	-1.50942663e-01	-2.52854345e-01	5.09558410e-02	1.86793640e-19	1.67035002e-20	0.00000000e+00	1.67035002e-20	-1.67035002e-20
1.3             	3.61092881e-02	1.80546440e-02	1.80546440e-02	-4.03867160e-01	-1.50949932e-01	-2.52917228e-01	5.09836482e-02	1.86826092e-19	1.67039013e-20	0.00000000e+00	1.67039013e-20	-1.67039013e-20
1.32            	3.61142760e-02	1.80571380e-02	1.80571380e-02	-4.03876121e-01	-1.50951573e-01	-2.52924548e-01	5.09864873e-02	1.86830237e-19	1.67062086e-20	0.00000000e+00	1.67062086e-20	-1.67062086e-20
1.34            	3.61105676e-02	1.80552838e-02	1.80552838e-02	-4.03833640e-01	-1.50942555e-01	-2.52891085e-01	5.09742653e-02	1.86810586e-19	1.67044931e-20	0.00000000e+00	1.67044931e-20	-1.67044931e-20
1.36            	3.60953250e-02	1.80476625e-02	1.80476625e-02	-4.03832527e-01	-1.50924070e-01	-2.52908457e-01	5.09921933e-02	1.86810071e-19	1.66974420e-20	0.00000000e+00	1.66974420e-20	-1.66974420e-20
1.38            	3.60880579e-02	1.80440290e-02	1.80440290e-02	-4.03887602e-01	-1.50916657e-01	-2.52970945e-01	5.10271441e-02	1.86835548e-19	1.66940803e-20	0.00000000e+00	1.66940803e-20	-1.66940803e-20
1.4             	3.61045605e-02	1.80522802e-02	1.80522802e-02	-4.03896078e-01	-1.50936569e-01	-2.52959509e-01	5.10114701e-02	1.86839469e-19	1.67017143e-20	0.00000000e+00	1.67017143e-20	-1.67017143e-20
1.42            	3.61142427e-02	1.80571214e-02	1.80571214e-02	-4.03879940e-01	-1.50956676e-01	-2.52923265e-01	5.09832944e-02	1.86832004e-19	1.67061932e-20	0.00000000e+00	1.67061932e-20	-1.67061932e-20
1.44            	3.60956050e-02	1.80478025e-02	1.80478025e-02	-4.03863724e-01	-1.50935895e-01	-2.52927829e-01	5.09959670e-02	1.86824502e-19	1.66975716e-20	0.00000000e+00	1.66975716e-20	-1.66975716e-20
1.46            	3.60813173e-02	1.80406587e-02	1.80406587e-02	-4.03825765e-01	-1.50904958e-01	-2.52920807e-01	5.10079245e-02	1.86806943e-19	1.66909622e-20	0.00000000e+00	1.66909622e-20	-1.66909622e-20
1.48            	3.60927841e-02	1.80463921e-02	1.80463921e-02	-4.03766018e-01	-1.50908482e-01	-2.52857535e-01	5.09745263e-02	1.86779304e-19	1.66962667e-20	0.00000000e+00	1.66962667e-20	-1.66962667e-20
1.5             	3.61040361e-02	1.80520180e-02	1.80520180e-02	-4.03764653e-01	-1.50929246e-01	-2.52835408e-01	5.09530810e-02	1.86778673e-19	1.67014717e-20	0.00000000e+00	1.67014717e-20	-1.67014717e-20
1.52            	3.61029436e-02	1.80514718e-02	1.80514718e-02	-4.03818009e-01	-1.50940294e-01	-2.52877714e-01	5.09687100e-02	1.86803355e-19	1.67009663e-20	0.00000000e+00	1.67009663e-20	-1.67009663e-20
1.54            	3.61111075e-02	1.80555538e-02	1.80555538e-02	-4.03837487e-01	-1.50951439e-01	-2.52886049e-01	5.09673049e-02	1.86812365e-19	1.67047429e-20	0.00000000e+00	1.67047429e-20	-1.67047429e-20
1.56            	3.61207395e-02	1.80603697e-02	1.80603697e-02	-4.03832138e-01	-1.50960328e-01	-2.52871811e-01	5.09557416e-02	1.86809891e-19	1.67091986e-20	0.00000000e+00	1.67091986e-20	-1.67091986e-20
1.58            	3.61089822e-02	1.80544911e-02	1.80544911e-02	-4.03854752e-01	-1.50949020e-01	-2.52905731e-01	5.09783553e-02	1.86820352e-19	1.67037598e-20	0.00000000e+00	1.67037598e-20	-1.67037598e-20
1.6             	3.60922498e-02	1.80461249e-02	1.80461249e-02	-4.03856021e-01	-1.50924257e-01	-2.52931764e-01	5.10037532e-02	1.86820939e-19	1.66960195e-20	0.00000000e+00	1.66960195e-20	-1.66960195e-20
1.62            	3.60989259e-02	1.80494629e-02	1.80494629e-02	-4.03801102e-01	-1.50918869e-01	-2.52882233e-01	5.09816820e-02	1.86795534e-19	1.66991078e-20	0.00000000e+00	1.66991078e-20	-1.66991078e-20
1.64            	3.61110781e-02	1.80555391e-02	1.80555391e-02	-4.03824305e-01	-1.50941191e-01	-2.52883114e-01	5.09709612e-02	1.86806267e-19	1.67047293e-20	0.00000000e+00	1.67047293e-20	-1.67047293e-20
1.66            	3.61073510e-02	1.80536755e-02	1.80536755e-02	-4.03922081e-01	-1.50958493e-01	-2.52963588e-01	5.10025473e-02	1.86851498e-19	1.67030052e-20	0.00000000e+00	1.67030052e-20	-1.67030052e-20
1.68            	3.60939564e-02	1.80469782e-02	1.80469782e-02	-4.03918583e-01	-1.50939509e-01	-2.52979074e-01	5.10197825e-02	1.86849880e-19	1.66968090e-20	0.00000000e+00	1.66968090e-20	-1.66968090e-20
1.7             	3.60929677e-02	1.80464838e-02	1.80464838e-02	-4.03780015e-01	-1.50910105e-01	-2.52869910e-01	5.09799022e-02	1.86785779e-19	1.66963516e-20	0.00000000e+00	1.66963516e-20	-1.66963516e-20
1.72            	3.60966808e-02	1.80483404e-02	1.80483404e-02	-4.03727364e-01	-1.50911131e-01	-2.52816233e-01	5.09525512e-02	1.86761423e-19	1.66980692e-20	0.00000000e+00	1.66980692e-20	-1.66980692e-20
1.74            	3.60988116e-02	1.80494058e-02	1.80494058e-02	-4.03777349e-01	-1.50927277e-01	-2.52850072e-01	5.09613978e-02	1.86784546e-19	1.66990549e-20	0.00000000e+00	1.66990549e-20	-1.66990549e-20
1.76            	3.61016674e-02	1.80508337e-02	1.80508337e-02	-4.03814517e-01	-1.50935058e-01	-2.52879459e-01	5.09722002e-02	1.86801739e-19	1.67003760e-20	0.00000000e+00	1.67003760e-20	-1.67003760e-20
1.78            	3.61148776e-02	1.80574388e-02	1.80574388e-02	-4.03792530e-01	-1.50946549e-01	-2.52845981e-01	5.09497160e-02	1.86791569e-19	1.67064869e-20	0.00000000e+00	1.67064869e-20	-1.67064869e-20
1.8             	3.61235573e-02	1.80617786e-02	1.80617786e-02	-4.03810269e-01	-1.50965073e-01	-2.52845196e-01	5.09400617e-02	1.86799774e-19	1.67105021e-20	0.00000000e+00	1.67105021e-20	-1.67105021e-20
1.82            	3.61152539e-02	1.80576270e-02	1.80576270e-02	-4.03851816e-01	-1.50961613e-01	-2.52890202e-01	5.09642947e-02	1.86818993e-19	1.67066610e-20	0.00000000e+00	1.67066610e-20	-1.67066610e-20
1.84            	3.60993695e-02	1.80496847e-02	1.80496847e-02	-4.03854272e-01	-1.50934520e-01	-2.52919753e-01	5.09926166e-02	1.86820130e-19	1.66993130e-20	0.00000000e+00	1.66993130e-20	-1.66993130e-20
1.86            	3.60991590e-02	1.80495795e-02	1.80495795e-02	-4.03798704e-01	-1.50918964e-01	-2.52879740e-01	5.09803883e-02	1.86794424e-19	1.66992156e-20	0.00000000e+00	1.66992156e-20	-1.66992156e-20
1.88            	3.61092769e-02	1.80546385e-02	1.80546385e-02	-4.03799515e-01	-1.50935455e-01	-2.52864060e-01	5.09643025e-02	1.86794800e-19	1.67038961e-20	0.00000000e+00	1.67038961e-20	-1.67038961e-20
1.9             	3.61119299e-02	1.80559649e-02	1.80559649e-02	-4.03880994e-01	-1.50957883e-01	-2.52923110e-01	5.09826134e-02	1.86832491e-19	1.67051233e-20	0.00000000e+00	1.67051233e-20	-1.67051233e-20
1.92            	3.61027506e-02	1.80513753e-02	1.80513753e-02	-4.03913081e-01	-1.50950746e-01	-2.52962334e-01	5.10057940e-02	1.86847334e-19	1.67008771e-20	0.00000000e+00	1.67008771e-20	-1.67008771e-20
1.94            	3.60935940e-02	1.80467970e-02	1.80467970e-02	-4.03820815e-01	-1.50919486e-01	-2.52901330e-01	5.09909218e-02	1.86804653e-19	1.66966413e-20	0.00000000e+00	1.66966413e-20	-1.66966413e-20
1.96            	3.60952784e-02	1.80476392e-02	1.80476392e-02	-4.03736390e-01	-1.50907662e-01	-2.52828728e-01	5.09605335e-02	1.86765598e-19	1.66974205e-20	0.00000000e+00	1.66974205e-20	-1.66974205e-20
1.98            	3.61003524e-02	1.80501762e-02	1.80501762e-02	-4.03748579e-01	-1.50921553e-01	-2.52827026e-01	5.09527363e-02	1.86771237e-19	1.66997677e-20	0.00000000e+00	1.66997677e-20	-1.66997677e-20
2               	3.61037110e-02	1.80518555e-02	1.80518555e-02	-4.03789283e-01	-1.50933211e-01	-2.52856072e-01	5.09614305e-02	1.86790066e-19	1.67013213e-20	0.00000000e+00	1.67013213e-20	-1.67013213e-20
2.02            	3.61044330e-02	1.80522165e-02	1.80522165e-02	-4.03827053e-01	-1.50938908e-01	-2.52888145e-01	5.09746185e-02	1.86807538e-19	1.67016553e-20	0.00000000e+00	1.67016553e-20	-1.67016553e-20
2.04            	3.61146660e-02	1.80573330e-02	1.80573330e-02	-4.03838551e-01	-1.50950823e-01	-2.52887728e-01	5.09684527e-02	1.86812857e-19	1.67063891e-20	0.00000000e+00	1.67063891e-20	-1.67063891e-20
2.06            	3.61207768e-02	1.80603884e-02	1.80603884e-02	-4.03835973e-01	-1.50961540e-01	-2.52874433e-01	5.09564462e-02	1.86811665e-19	1.67092159e-20	0.00000000e+00	1.67092159e-20	-1.67092159e-20
2.08            	3.61073571e-02	1.80536786e-02	1.80536786e-02	-4.03847290e-01	-1.50947254e-01	-2.52900036e-01	5.09763911e-02	1.86816900e-19	1.67030080e-20	0.00000000e+00	1.67030080e-20	-1.67030080e-20
2.1             	3.60887681e-02	1.80443840e-02	1.80443840e-02	-4.03866736e-01	-1.50920106e-01	-2.52946630e-01	5.10132623e-02	1.86825895e-19	1.66944088e-20	0.00000000e+00	1.66944088e-20	-1.66944088e-20
2.12            	3.60965243e-02	1.80482622e-02	1.80482622e-02	-4.03837154e-01	-1.50919127e-01	-2.52918027e-01	5.09994500e-02	1.86812211e-19	1.66979968e-20	0.00000000e+00	1.66979968e-20	-1.66979968e-20
2.14            	3.61128902e-02	1.80564451e-02	1.80564451e-02	-4.03843610e-01	-1.50949490e-01	-2.52894121e-01	5.09723157e-02	1.86815198e-19	1.67055676e-20	0.00000000e+00	1.67055676e-20	-1.67055676e-20
2.16            	3.61081736e-02	1.80540868e-02	1.80540868e-02	-4.03910021e-01	-1.50963367e-01	-2.52946654e-01	5.09916434e-02	1.86845919e-19	1.67033857e-20	0.00000000e+00	1.67033857e-20	-1.67033857e-20
2.18            	3.60892656e-02	1.80446328e-02	1.80446328e-02	-4.03900199e-01	-1.50933005e-01	-2.52967194e-01	5.10170943e-02	1.86841375e-19	1.66946390e-20	0.00000000e+00	1.66946390e-20	-1.66946390e-20
2.2             	3.60879729e-02	1.80439864e-02	1.80439864e-02	-4.03788393e-01	-1.50905888e-01	-2.52882505e-01	5.09883086e-02	1.86789655e-19	1.66940410e-20	0.00000000e+00	1.66940410e-20	-1.66940410e-20
2.22            	3.60973943e-02	1.80486971e-02	1.80486971e-02	-4.03738555e-01	-1.50917057e-01	-2.52821498e-01	5.09522204e-02	1.86766600e-19	1.66983993e-20	0.00000000e+00	1.66983993e-20	-1.66983993e-20
2.24            	3.61002020e-02	1.80501010e-02	1.80501010e-02	-4.03788058e-01	-1.50935023e-01	-2.52853035e-01	5.09590058e-02	1.86789500e-19	1.66996981e-20	0.00000000e+00	1.66996981e-20	-1.66996981e-20
2.26            	3.61044433e-02	1.80522216e-02	1.80522216e-02	-4.03810572e-01	-1.50941447e-01	-2.52869125e-01	5.09638391e-02	1.86799915e-19	1.67016601e-20	0.00000000e+00	1.67016601e-20	-1.67016601e-20
2.28            	3.61179357e-02	1.80589678e-02	1.80589678e-02	-4.03796190e-01	-1.50955454e-01	-2.52840737e-01	5.09426415e-02	1.86793262e-19	1.67079016e-20	0.00000000e+00	1.67079016e-20	-1.67079016e-20
2.3             	3.61197342e-02	1.80598671e-02	1.80598671e-02	-4.03840407e-01	-1.50967035e-01	-2.52873372e-01	5.09531686e-02	1.86813716e-19	1.67087336e-20	0.00000000e+00	1.67087336e-20	-1.67087336e-20
2.32            	3.61061769e-02	1.80530884e-02	1.80530884e-02	-4.03881707e-01	-1.50953301e-01	-2.52928406e-01	5.09875526e-02	1.86832821e-19	1.67024620e-20	0.00000000e+00	1.67024620e-20	-1.67024620e-20
2.34            	3.61006104e-02	1.80503052e-02	1.80503052e-02	-4.03819624e-01	-1.50929667e-01	-2.52889956e-01	5.09801444e-02	1.86804102e-19	1.66998870e-20	0.00000000e+00	1.66998870e-20	-1.66998870e-20
2.36            	3.61056971e-02	1.80528485e-02	1.80528485e-02	-4.03764797e-01	-1.50926169e-01	-2.52838628e-01	5.09562294e-02	1.86778739e-19	1.67022401e-20	0.00000000e+00	1.67022401e-20	-1.67022401e-20
2.38            	3.61048820e-02	1.80524410e-02	1.80524410e-02	-4.03853604e-01	-1.50942305e-01	-2.52911299e-01	5.09844967e-02	1.86819821e-19	1.67018630e-20	0.00000000e+00	1.67018630e-20	-1.67018630e-20
2.4             	3.61036302e-02	1.80518151e-02	1.80518151e-02	-4.03940470e-01	-1.50954791e-01	-2.52985679e-01	5.10154443e-02	1.86860004e-19	1.67012840e-20	0.00000000e+00	1.67012840e-20	-1.67012840e-20
2.42            	3.61062006e-02	1.80531003e-02	1.80531003e-02	-4.03857427e-01	-1.50944317e-01	-2.52913110e-01	5.09843963e-02	1.86821589e-19	1.67024730e-20	0.00000000e+00	1.67024730e-20	-1.67024730e-20
2.44            	3.60974398e-02	1.80487199e-02	1.80487199e-02	-4.03763244e-01	-1.50918769e-01	-2.52844476e-01	5.09628535e-02	1.86778021e-19	1.66984203e-20	0.00000000e+00	1.66984203e-20	-1.66984203e-20
2.46            	3.60858208e-02	1.80429104e-02	1.80429104e-02	-4.03790074e-01	-1.50908953e-01	-2.52881121e-01	5.09860840e-02	1.86790432e-19	1.66930455e-20	0.00000000e+00	1.66930455e-20	-1.66930455e-20
2.48            	3.60951454e-02	1.80475727e-02	1.80475727e-02	-4.03795520e-01	-1.50919216e-01	-2.52876303e-01	5.09785435e-02	1.86792951e-19	1.66973590e-20	0.00000000e+00	1.66973590e-20	-1.66973590e-20
2.5             	3.61145038e-02	1.80572519e-02	1.80572519e-02	-4.03739301e-01	-1.50937313e-01	-2.52801988e-01	5.09323375e-02	1.86766945e-19	1.67063140e-20	0.00000000e+00	1.67063140e-20	-1.67063140e-20
2.52            	3.61153852e-02	1.80576926e-02	1.80576926e-02	-4.03784357e-01	-1.50953042e-01	-2.52831315e-01	5.09391369e-02	1.86787788e-19	1.67067217e-20	0.00000000e+00	1.67067217e-20	-1.67067217e-20
2.54            	3.61100930e-02	1.80550465e-02	1.80550465e-02	-4.03883059e-01	-1.50960142e-01	-2.52922917e-01	5.09813876e-02	1.86833447e-19	1.67042736e-20	0.00000000e+00	1.67042736e-20	-1.67042736e-20
2.56            	3.61149906e-02	1.80574953e-02	1.80574953e-02	-4.03857354e-01	-1.50954500e-01	-2.52902854e-01	5.09741770e-02	1.86821555e-19	1.67065392e-20	0.00000000e+00	1.67065392e-20	-1.67065392e-20
2.58            	3.61151309e-02	1.80575654e-02	1.80575654e-02	-4.03771778e-01	-1.50941493e-01	-2.52830284e-01	5.09443954e-02	1.86781968e-19	1.67066041e-20	0.00000000e+00	1.67066041e-20	-1.67066041e-20
2.6             	3.61009895e-02	1.80504947e-02	1.80504947e-02	-4.03788065e-01	-1.50930507e-01	-2.52857557e-01	5.09635250e-02	1.86789503e-19	1.67000624e-20	0.00000000e+00	1.67000624e-20	-1.67000624e-20
2.62            	3.60958249e-02	1.80479124e-02	1.80479124e-02	-4.03867846e-01	-1.50932602e-01	-2.52935244e-01	5.10013211e-02	1.86826409e-19	1.66976733e-20	0.00000000e+00	1.66976733e-20	-1.66976733e-20
2.64            	3.61099949e-02	1.80549975e-02	1.80549975e-02	-4.03886255e-01	-1.50950741e-01	-2.52935514e-01	5.09923861e-02	1.86834925e-19	1.67042282e-20	0.00000000e+00	1.67042282e-20	-1.67042282e-20
2.66            	3.61163829e-02	1.80581914e-02	1.80581914e-02	-4.03842678e-01	-1.50958876e-01	-2.52883802e-01	5.09624630e-02	1.86814766e-19	1.67071833e-20	0.00000000e+00	1.67071833e-20	-1.67071833e-20
2.68            	3.60976181e-02	1.80488091e-02	1.80488091e-02	-4.03807497e-01	-1.50935483e-01	-2.52872014e-01	5.09682656e-02	1.86798492e-19	1.66985028e-20	0.00000000e+00	1.66985028e-20	-1.66985028e-20
2.7             	3.60842846e-02	1.80421423e-02	1.80421423e-02	-4.03798507e-01	-1.50912978e-01	-2.52885529e-01	5.09862751e-02	1.86794333e-19	1.66923348e-20	0.00000000e+00	1.66923348e-20	-1.66923348e-20
2.72            	3.60925737e-02	1.80462869e-02	1.80462869e-02	-4.03785908e-01	-1.50916343e-01	-2.52869564e-01	5.09766105e-02	1.86788505e-19	1.66961693e-20	0.00000000e+00	1.66961693e-20	-1.66961693e-20
2.74            	3.61107936e-02	1.80553968e-02	1.80553968e-02	-4.03744670e-01	-1.50935973e-01	-2.52808696e-01	5.09363616e-02	1.86769428e-19	1.67045977e-20	0.00000000e+00	1.67045977e-20	-1.67045977e-20
2.76            	3.61131283e-02	1.80565641e-02	1.80565641e-02	-4.03775264e-01	-1.50954536e-01	-2.52820727e-01	5.09330956e-02	1.86783581e-19	1.67056777e-20	0.00000000e+00	1.67056777e-20	-1.67056777e-20
2.78            	3.61115797e-02	1.80557899e-02	1.80557899e-02	-4.03852826e-01	-1.50965930e-01	-2.52886895e-01	5.09604824e-02	1.86819461e-19	1.67049614e-20	0.00000000e+00	1.67049614e-20	-1.67049614e-20
2.8             	3.61092171e-02	1.80546086e-02	1.80546086e-02	-4.03901113e-01	-1.50959382e-01	-2.52941731e-01	5.09911746e-02	1.86841798e-19	1.67038684e-20	0.00000000e+00	1.67038684e-20	-1.67038684e-20
2.82            	3.61109122e-02	1.80554561e-02	1.80554561e-02	-4.03829946e-01	-1.50944413e-01	-2.52885534e-01	5.09705605e-02	1.86808877e-19	1.67046526e-20	0.00000000e+00	1.67046526e-20	-1.67046526e-20
2.84            	3.61036341e-02	1.80518171e-02	1.80518171e-02	-4.03783346e-01	-1.50934314e-01	-2.52849031e-01	5.09573585e-02	1.86787320e-19	1.67012858e-20	0.00000000e+00	1.67012858e-20	-1.67012858e-20
2.86            	3.60964549e-02	1.80482274e-02	1.80482274e-02	-4.03832833e-01	-1.50934390e-01	-2.52898442e-01	5.09820261e-02	1.86810212e-19	1.66979647e-20	0.00000000e+00	1.66979647e-20	-1.66979647e-20
2.88            	3.60966356e-02	1.80483178e-02	1.80483178e-02	-4.03930833e-01	-1.50944250e-01	-2.52986583e-01	5.10211666e-02	1.86855546e-19	1.66980483e-20	0.00000000e+00	1.66980483e-20	-1.66980483e-20
2.9             	3.61050064e-02	1.80525032e-02	1.80525032e-02	-4.03930514e-01	-1.50952686e-01	-2.52977828e-01	5.10125712e-02	1.86855399e-19	1.67019206e-20	0.00000000e+00	1.67019206e-20	-1.67019206e-20