# Field minima and maxima
# Time          	field           	min             	location(min)   	processor       	max             	location(max)   	processor       
0.02            	p               	7.33073664e-01	(6.09387686e-01 8.30145538e-02 2.29492899e-19)	1	1.32708101e+00	(4.84362126e-01 9.93385440e-02 -2.76812627e-19)	1
0.04            	p               	5.92266341e-01	(6.71887564e-01 7.21318930e-02 1.26707535e-18)	1	1.58299435e+00	(4.84362126e-01 9.93385440e-02 -2.76812627e-19)	1
0.06            	p               	5.25979154e-01	(9.84386985e-01 1.77185836e-02 1.06559893e-18)	9	1.74482367e+00	(4.84362126e-01 9.93385440e-02 -2.76812627e-19)	1
0.08            	p               	5.13337519e-01	(9.84386985e-01 1.77185836e-02 1.06559893e-18)	9	1.79655474e+00	(4.84362126e-01 9.93385440e-02 -2.76812627e-19)	1
0.1             	p               	4.42516865e-01	(6.09387686e-01 8.30145538e-02 2.29492899e-19)	1	1.75198861e+00	(3.59362375e-01 7.75732234e-02 -3.69358592e-19)	1
0.12            	p               	3.67761147e-01	(6.09387686e-01 8.30145538e-02 2.29492899e-19)	1	1.80549783e+00	(1.09362847e-01 3.40425774e-02 -1.46732709e-12)	0
0.14            	p               	3.30121206e-01	(6.40637625e-01 7.75732234e-02 -3.27702793e-19)	1	1.84599062e+00	(1.09362847e-01 3.40425774e-02 -1.46732709e-12)	0
0.16            	p               	3.13024156e-01	(6.40637625e-01 7.75732234e-02 -3.27702793e-19)	1	1.88230731e+00	(1.09362847e-01 3.40425774e-02 -1.46732709e-12)	0
0.18            	p               	3.11928988e-01	(6.40637625e-01 7.75732234e-02 -3.27702793e-19)	1	1.91159504e+00	(1.09362847e-01 3.40425774e-02 -1.46732709e-12)	0
0.2             	p               	3.16184849e-01	(6.40637625e-01 7.75732234e-02 -3.27702793e-19)	1	1.93035829e+00	(1.09362847e-01 3.40425774e-02 -1.46732709e-12)	0
0.22            	p               	3.16570605e-01	(6.40637625e-01 7.75732234e-02 -3.27702793e-19)	1	1.94131031e+00	(1.09362847e-01 3.40425774e-02 -1.46732709e-12)	0
0.24            	p               	3.12718041e-01	(6.40637625e-01 7.75732234e-02 -3.27702793e-19)	1	1.94864779e+00	(1.09362847e-01 3.40425774e-02 -1.46732709e-12)	0
0.26            	p               	3.11800834e-01	(6.40637625e-01 7.75732234e-02 -3.27702793e-19)	1	1.95257479e+00	(1.09362847e-01 3.40425774e-02 -1.46732709e-12)	0
0.28            	p               	3.14705246e-01	(6.40637625e-01 7.75732234e-02 -3.27702793e-19)	1	1.95258497e+00	(1.09362847e-01 3.40425774e-02 -1.46732709e-12)	0
0.3             	p               	3.17172919e-01	(6.40637625e-01 7.75732234e-02 -3.27702793e-19)	1	1.95106484e+00	(1.09362847e-01 3.40425774e-02 -1.46732709e-12)	0
0.32            	p               	3.17835437e-01	(6.40637625e-01 7.75732234e-02 -3.27702793e-19)	1	1.95024417e+00	(1.09362847e-01 3.40425774e-02 -1.46732709e-12)	0
0.34            	p               	3.18248019e-01	(6.40637625e-01 7.75732234e-02 -3.27702793e-19)	1	1.95033899e+00	(1.09362847e-01 3.40425774e-02 -1.46732709e-12)	0
0.36            	p               	3.20914942e-01	(6.40637625e-01 7.75732234e-02 -3.27702793e-19)	1	1.94980567e+00	(1.09362847e-01 3.40425774e-02 -1.46732709e-12)	0
0.38            	p               	3.23841211e-01	(6.40637625e-01 7.75732234e-02 -3.27702793e-19)	1	1.94840530e+00	(1.09362847e-01 3.40425774e-02 -1.46732709e-12)	0
0.4             	p               	3.24645346e-01	(6.40637625e-01 7.75732234e-02 -3.27702793e-19)	1	1.94775676e+00	(1.09362847e-01 3.40425774e-02 -1.46732709e-12)	0
0.42            	p               	3.26757979e-01	(6.40637625e-01 7.75732234e-02 -3.27702793e-19)	1	1.94878596e+00	(1.09362847e-01 3.40425774e-02 -1.46732709e-12)	0
0.44            	p               	3.30538291e-01	(6.40637625e-01 7.75732234e-02 -3.27702793e-19)	1	1.94976836e+00	(1.09362847e-01 3.40425774e-02 -1.46732709e-12)	0
0.46            	p               	3.29860972e-01	(6.40637625e-01 7.75732234e-02 -3.27702793e-19)	1	1.94896359e+00	(1.09362847e-01 3.40425774e-02 -1.46732709e-12)	0
0.48            	p               	3.30415036e-01	(6.40637625e-01 7.75732234e-02 -3.27702793e-19)	1	1.94684334e+00	(1.09362847e-01 3.40425774e-02 -1.46732709e-12)	0
0.5             	p               	3.35742726e-01	(6.40637625e-01 7.75732234e-02 -3.27702793e-19)	1	1.94546639e+00	(1.09362847e-01 3.40425774e-02 -1.46732709e-12)	0
0.52            	p               	3.41373512e-01	(6.40637625e-01 7.75732234e-02 -3.27702793e-19)	1	1.94638771e+00	(1.09362847e-01 3.40425774e-02 -1.46732709e-12)	0
0.54            	p               	3.39692562e-01	(6.40637625e-01 7.75732234e-02 -3.27702793e-19)	1	1.94833851e+00	(1.09362847e-01 3.40425774e-02 -1.46732709e-12)	0
0.56            	p               	3.39373891e-01	(6.40637625e-01 7.75732234e-02 -3.27702793e-19)	1	1.94972923e+00	(1.09362847e-01 3.40425774e-02 -1.46732709e-12)	0
0.58            	p               	3.45968864e-01	(6.40637625e-01 7.75732234e-02 -3.27702793e-19)	1	1.95097058e+00	(1.09362847e-01 3.40425774e-02 -1.46732709e-12)	0
0.6             	p               	3.51286506e-01	(6.40637625e-01 7.75732234e-02 -3.27702793e-19)	1	1.95104165e+00	(1.09362847e-01 3.40425774e-02 -1.46732709e-12)	0
0.62            	p               	3.52129703e-01	(6.40637625e-01 7.75732234e-02 -3.27702793e-19)	1	1.94946215e+00	(1.09362847e-01 3.40425774e-02 -1.46732709e-12)	0
0.64            	p               	3.54873455e-01	(6.40637625e-01 7.75732234e-02 -3.27702793e-19)	1	1.94806556e+00	(1.09362847e-01 3.40425774e-02 -1.46732709e-12)	0
0.66            	p               	3.59482918e-01	(6.40637625e-01 7.75732234e-02 -3.27702793e-19)	1	1.94796792e+00	(1.09362847e-01 3.40425774e-02 -1.46732709e-12)	0
0.68            	p               	3.63237893e-01	(6.40637625e-01 7.75732234e-02 -3.27702793e-19)	1	1.94820031e+00	(1.09362847e-01 3.40425774e-02 -1.46732709e-12)	0
0.7             	p               	3.68004831e-01	(6.40637625e-01 7.75732234e-02 -3.27702793e-19)	1	1.94701397e+00	(1.09362847e-01 3.40425774e-02 -1.46732709e-12)	0
0.72            	p               	3.73454581e-01	(6.40637625e-01 7.75732234e-02 -3.27702793e-19)	1	1.94515338e+00	(1.09362847e-01 3.40425774e-02 -1.46732709e-12)	0
0.74            	p               	3.73192633e-01	(6.40637625e-01 7.75732234e-02 -3.27702793e-19)	1	1.94637397e+00	(1.09362847e-01 3.40425774e-02 -1.46732709e-12)	0
0.76            	p               	3.74480851e-01	(6.40637625e-01 7.75732234e-02 -3.27702793e-19)	1	1.94933709e+00	(1.09362847e-01 3.40425774e-02 -1.46732709e-12)	0
0.78            	p               	3.81383167e-01	(6.40637625e-01 7.75732234e-02 -3.27702793e-19)	1	1.95051069e+00	(1.09362847e-01 3.40425774e-02 -1.46732709e-12)	0
0.8             	p               	3.88800337e-01	(6.40637625e-01 7.75732234e-02 -3.27702793e-19)	1	1.95116248e+00	(1.09362847e-01 3.40425774e-02 -1.46732709e-12)	0
0.82            	p               	3.85882805e-01	(6.40637625e-01 7.75732234e-02 -3.27702793e-19)	1	1.95080330e+00	(1.09362847e-01 3.40425774e-02 -1.46732709e-12)	0
0.84            	p               	3.85743053e-01	(6.40637625e-01 7.75732234e-02 -3.27702793e-19)	1	1.94889021e+00	(1.09362847e-01 3.40425774e-02 -1.46732709e-12)	0
0.86            	p               	3.91574088e-01	(6.40637625e-01 7.75732234e-02 -3.27702793e-19)	1	1.94741605e+00	(1.09362847e-01 3.40425774e-02 -1.46732709e-12)	0
0.88            	p               	3.95682232e-01	(6.40637625e-01 7.75732234e-02 -3.27702793e-19)	1	1.94759789e+00	(1.09362847e-01 3.40425774e-02 -1.46732709e-12)	0
0.9             	p               	3.93573856e-01	(6.40637625e-01 7.75732234e-02 -3.27702793e-19)	1	1.94870598e+00	(1.09362847e-01 3.40425774e-02 -1.46732709e-12)	0
0.92            	p               	3.94225482e-01	(6.40637625e-01 7.75732234e-02 -3.27702793e-19)	1	1.94861535e+00	(1.09362847e-01 3.40425774e-02 -1.46732709e-12)	0
0.94            	p               	3.97741397e-01	(6.40637625e-01 7.75732234e-02 -3.27702793e-19)	1	1.94645496e+00	(1.09362847e-01 3.40425774e-02 -1.46732709e-12)	0
0.96            	p               	3.97294397e-01	(6.40637625e-01 7.75732234e-02 -3.27702793e-19)	1	1.94551285e+00	(1.09362847e-01 3.40425774e-02 -1.46732709e-12)	0
0.98            	p               	3.95717505e-01	(6.40637625e-01 7.75732234e-02 -3.27702793e-19)	1	1.94767135e+00	(1.09362847e-01 3.40425774e-02 -1.46732709e-12)	0
1               	p               	3.97607159e-01	(6.40637625e-01 7.75732234e-02 -3.27702793e-19)	1	1.94958937e+00	(1.09362847e-01 3.40425774e-02 -1.46732709e-12)	0
1.02            	p               	3.97861625e-01	(6.40637625e-01 7.75732234e-02 -3.27702793e-19)	1	1.95019796e+00	(1.09362847e-01 3.40425774e-02 -1.46732709e-12)	0
1.04            	p               	3.95212684e-01	(6.40637625e-01 7.75732234e-02 -3.27702793e-19)	1	1.95079246e+00	(1.09362847e-01 3.40425774e-02 -1.46732709e-12)	0
1.06            	p               	3.96345476e-01	(6.40637625e-01 7.75732234e-02 -3.27702793e-19)	1	1.95016064e+00	(1.09362847e-01 3.40425774e-02 -1.46732709e-12)	0
1.08            	p               	3.99841503e-01	(6.40637625e-01 7.75732234e-02 -3.27702793e-19)	1	1.94855806e+00	(1.09362847e-01 3.40425774e-02 -1.46732709e-12)	0
1.1             	p               	3.97559176e-01	(6.40637625e-01 7.75732234e-02 -3.27702793e-19)	1	1.94777409e+00	(1.09362847e-01 3.40425774e-02 -1.46732709e-12)	0
1.12            	p               	3.94998164e-01	(6.40637625e-01 7.75732234e-02 -3.27702793e-19)	1	1.94833549e+00	(1.09362847e-01 3.40425774e-02 -1.46732709e-12)	0
1.14            	p               	3.97733342e-01	(6.40637625e-01 7.75732234e-02 -3.27702793e-19)	1	1.94924923e+00	(1.09362847e-01 3.40425774e-02 -1.46732709e-12)	0
1.16            	p               	4.00214929e-01	(6.40637625e-01 7.75732234e-02 -3.27702793e-19)	1	1.94929109e+00	(1.09362847e-01 3.40425774e-02 -1.46732709e-12)	0
1.18            	p               	3.96456758e-01	(6.40637625e-01 7.75732234e-02 -3.27702793e-19)	1	1.94761425e+00	(1.09362847e-01 3.40425774e-02 -1.46732709e-12)	0
1.2             	p               	3.94856843e-01	(6.40637625e-01 7.75732234e-02 -3.27702793e-19)	1	1.94518606e+00	(1.09362847e-01 3.40425774e-02 -1.46732709e-12)	0
1.22            	p               	3.97644499e-01	(6.40637625e-01 7.75732234e-02 -3.27702793e-19)	1	1.94562763e+00	(1.09362847e-01 3.40425774e-02 -1.46732709e-12)	0
1.24            	p               	3.99040239e-01	(6.40637625e-01 7.75732234e-02 -3.27702793e-19)	1	1.94869243e+00	(1.09362847e-01 3.40425774e-02 -1.46732709e-12)	0
1.26            	p               	3.95663068e-01	(6.40637625e-01 7.75732234e-02 -3.27702793e-19)	1	1.95004282e+00	(1.09362847e-01 3.40425774e-02 -1.46732709e-12)	0
1.28            	p               	3.94238542e-01	(6.40637625e-01 7.75732234e-02 -3.27702793e-19)	1	1.95028015e+00	(1.09362847e-01 3.40425774e-02 -1.46732709e-12)	0
1.3             	p               	3.96103185e-01	(6.40637625e-01 7.75732234e-02 -3.27702793e-19)	1	1.95076835e+00	(1.09362847e-01 3.40425774e-02 -1.46732709e-12)	0
1.32            	p               	3.98861887e-01	(6.40637625e-01 7.75732234e-02 -3.27702793e-19)	1	1.94978781e+00	(1.09362847e-01 3.40425774e-02 -1.46732709e-12)	0
1.34            	p               	3.98309691e-01	(6.40637625e-01 7.75732234e-02 -3.27702793e-19)	1	1.94809391e+00	(1.09362847e-01 3.40425774e-02 -1.46732709e-12)	0
1.36            	p               	3.95789378e-01	(6.40637625e-01 7.75732234e-02 -3.27702793e-19)	1	1.94758279e+00	(1.09362847e-01 3.40425774e-02 -1.46732709e-12)	0
1.38            	p               	3.95749292e-01	(6.40637625e-01 7.75732234e-02 -3.27702793e-19)	1	1.94848371e+00	(1.09362847e-01 3.40425774e-02 -1.46732709e-12)	0
1.4             	p               	3.99180099e-01	(6.40637625e-01 7.75732234e-02 -3.27702793e-19)	1	1.94935909e+00	(1.09362847e-01 3.40425774e-02 -1.46732709e-12)	0
1.42            	p               	4.00057645e-01	(6.40637625e-01 7.75732234e-02 -3.27702793e-19)	1	1.94861768e+00	(1.09362847e-01 3.40425774e-02 -1.46732709e-12)	0
1.44            	p               	3.95809843e-01	(6.40637625e-01 7.75732234e-02 -3.27702793e-19)	1	1.94612136e+00	(1.09362847e-01 3.40425774e-02 -1.46732709e-12)	0
1.46            	p               	3.95281571e-01	(6.40637625e-01 7.75732234e-02 -3.27702793e-19)	1	1.94502912e+00	(1.09362847e-01 3.40425774e-02 -1.46732709e-12)	0
1.48            	p               	3.99283417e-01	(6.40637625e-01 7.75732234e-02 -3.27702793e-19)	1	1.94746074e+00	(1.09362847e-01 3.40425774e-02 -1.46732709e-12)	0
1.5             	p               	3.99038395e-01	(6.40637625e-01 7.75732234e-02 -3.27702793e-19)	1	1.94982245e+00	(1.09362847e-01 3.40425774e-02 -1.46732709e-12)	0
1.52            	p               	3.94266950e-01	(6.40637625e-01 7.75732234e-02 -3.27702793e-19)	1	1.95040551e+00	(1.09362847e-01 3.40425774e-02 -1.46732709e-12)	0
1.54            	p               	3.95372410e-01	(6.40637625e-01 7.75732234e-02 -3.27702793e-19)	1	1.95087327e+00	(1.09362847e-01 3.40425774e-02 -1.46732709e-12)	0
1.56            	p               	3.99968658e-01	(6.40637625e-01 7.75732234e-02 -3.27702793e-19)	1	1.95019763e+00	(1.09362847e-01 3.40425774e-02 -1.46732709e-12)	0
1.58            	p               	3.97548454e-01	(6.40637625e-01 7.75732234e-02 -3.27702793e-19)	1	1.94846419e+00	(1.09362847e-01 3.40425774e-02 -1.46732709e-12)	0
1.6             	p               	3.94396169e-01	(6.40637625e-01 7.75732234e-02 -3.27702793e-19)	1	1.94752219e+00	(1.09362847e-01 3.40425774e-02 -1.46732709e-12)	0
1.62            	p               	3.98002093e-01	(6.40637625e-01 7.75732234e-02 -3.27702793e-19)	1	1.94812904e+00	(1.09362847e-01 3.40425774e-02 -1.46732709e-12)	0
1.64            	p               	4.00955954e-01	(6.40637625e-01 7.75732234e-02 -3.27702793e-19)	1	1.94925631e+00	(1.09362847e-01 3.40425774e-02 -1.46732709e-12)	0
1.66            	p               	3.96162505e-01	(6.40637625e-01 7.75732234e-02 -3.27702793e-19)	1	1.94919373e+00	(1.09362847e-01 3.40425774e-02 -1.46732709e-12)	0
1.68            	p               	3.94863268e-01	(6.40637625e-01 7.75732234e-02 -3.27702793e-19)	1	1.94707011e+00	(1.09362847e-01 3.40425774e-02 -1.46732709e-12)	0
1.7             	p               	3.99960704e-01	(6.40637625e-01 7.75732234e-02 -3.27702793e-19)	1	1.94491621e+00	(1.09362847e-01 3.40425774e-02 -1.46732709e-12)	0
1.72            	p               	3.99035724e-01	(6.09387686e-01 8.30145538e-02 2.29492899e-19)	1	1.94625847e+00	(1.09362847e-01 3.40425774e-02 -1.46732709e-12)	0
1.74            	p               	3.94898956e-01	(6.40637625e-01 7.75732234e-02 -3.27702793e-19)	1	1.94928053e+00	(1.09362847e-01 3.40425774e-02 -1.46732709e-12)	0
1.76            	p               	3.94375112e-01	(6.40637625e-01 7.75732234e-02 -3.27702793e-19)	1	1.95030560e+00	(1.09362847e-01 3.40425774e-02 -1.46732709e-12)	0
1.78            	p               	3.99854747e-01	(6.40637625e-01 7.75732234e-02 -3.27702793e-19)	1	1.95068718e+00	(1.09362847e-01 3.40425774e-02 -1.46732709e-12)	0
1.8             	p               	3.98046023e-01	(6.09387686e-01 8.30145538e-02 2.29492899e-19)	1	1.95059833e+00	(1.09362847e-01 3.40425774e-02 -1.46732709e-12)	0
1.82            	p               	3.95043508e-01	(6.40637625e-01 7.75732234e-02 -3.27702793e-19)	1	1.94911418e+00	(1.09362847e-01 3.40425774e-02 -1.46732709e-12)	0
1.84            	p               	3.94741604e-01	(6.40637625e-01 7.75732234e-02 -3.27702793e-19)	1	1.94773518e+00	(1.09362847e-01 3.40425774e-02 -1.46732709e-12)	0
1.86            	p               	3.99935442e-01	(6.40637625e-01 7.75732234e-02 -3.27702793e-19)	1	1.94780522e+00	(1.09362847e-01 3.40425774e-02 -1.46732709e-12)	0
1.88            	p               	3.99133219e-01	(6.09387686e-01 8.30145538e-02 2.29492899e-19)	1	1.94888189e+00	(1.09362847e-01 3.40425774e-02 -1.46732709e-12)	0
1.9             	p               	3.96008852e-01	(6.40637625e-01 7.75732234e-02 -3.27702793e-19)	1	1.94936895e+00	(1.09362847e-01 3.40425774e-02 -1.46732709e-12)	0
1.92            	p               	3.94766145e-01	(6.40637625e-01 7.75732234e-02 -3.27702793e-19)	1	1.94794070e+00	(1.09362847e-01 3.40425774e-02 -1.46732709e-12)	0
1.94            	p               	3.98513291e-01	(6.40637625e-01 7.75732234e-02 -3.27702793e-19)	1	1.94536571e+00	(1.09362847e-01 3.40425774e-02 -1.46732709e-12)	0
1.96            	p               	4.01213329e-01	(6.40637625e-01 7.75732234e-02 -3.27702793e-19)	1	1.94537514e+00	(1.09362847e-01 3.40425774e-02 -1.46732709e-12)	0
1.98            	p               	3.96351799e-01	(6.09387686e-01 8.30145538e-02 2.29492899e-19)	1	1.94841509e+00	(1.09362847e-01 3.40425774e-02 -1.46732709e-12)	0
2               	p               	3.94398591e-01	(6.40637625e-01 7.75732234e-02 -3.27702793e-19)	1	1.95012769e+00	(1.09362847e-01 3.40425774e-02 -1.46732709e-12)	0
2.02            	p               	3.96123905e-01	(6.40637625e-01 7.75732234e-02 -3.27702793e-19)	1	1.95044345e+00	(1.09362847e-01 3.40425774e-02 -1.46732709e-12)	0
2.04            	p               	4.00145977e-01	(6.40637625e-01 7.75732234e-02 -3.27702793e-19)	1	1.95079221e+00	(1.09362847e-01 3.40425774e-02 -1.46732709e-12)	0
2.06            	p               	3.97422842e-01	(6.09387686e-01 8.30145538e-02 2.29492899e-19)	1	1.94977871e+00	(1.09362847e-01 3.40425774e-02 -1.46732709e-12)	0
2.08            	p               	3.95160195e-01	(6.40637625e-01 7.75732234e-02 -3.27702793e-19)	1	1.94811252e+00	(1.09362847e-01 3.40425774e-02 -1.46732709e-12)	0
2.1             	p               	3.95282823e-01	(6.40637625e-01 7.75732234e-02 -3.27702793e-19)	1	1.94758781e+00	(1.09362847e-01 3.40425774e-02 -1.46732709e-12)	0
2.12            	p               	4.00230947e-01	(6.40637625e-01 7.75732234e-02 -3.27702793e-19)	1	1.94845863e+00	(1.09362847e-01 3.40425774e-02 -1.46732709e-12)	0
2.14            	p               	3.98618026e-01	(6.09387686e-01 8.30145538e-02 2.29492899e-19)	1	1.94936355e+00	(1.09362847e-01 3.40425774e-02 -1.46732709e-12)	0
2.16            	p               	3.95653832e-01	(6.40637625e-01 7.75732234e-02 -3.27702793e-19)	1	1.94872576e+00	(1.09362847e-01 3.40425774e-02 -1.46732709e-12)	0
2.18            	p               	3.94942029e-01	(6.40637625e-01 7.75732234e-02 -3.27702793e-19)	1	1.94624551e+00	(1.09362847e-01 3.40425774e-02 -1.46732709e-12)	0
2.2             	p               	4.00351037e-01	(6.40637625e-01 7.75732234e-02 -3.27702793e-19)	1	1.94488111e+00	(1.09362847e-01 3.40425774e-02 -1.46732709e-12)	0
2.22            	p               	3.98801395e-01	(6.09387686e-01 8.30145538e-02 2.29492899e-19)	1	1.94722391e+00	(1.09362847e-01 3.40425774e-02 -1.46732709e-12)	0
2.24            	p               	3.94662967e-01	(6.40637625e-01 7.75732234e-02 -3.27702793e-19)	1	1.94982544e+00	(1.09362847e-01 3.40425774e-02 -1.46732709e-12)	0
2.26            	p               	3.94350040e-01	(6.40637625e-01 7.75732234e-02 -3.27702793e-19)	1	1.95038957e+00	(1.09362847e-01 3.40425774e-02 -1.46732709e-12)	0
2.28            	p               	4.00197613e-01	(6.40637625e-01 7.75732234e-02 -3.27702793e-19)	1	1.95079294e+00	(1.09362847e-01 3.40425774e-02 -1.46732709e-12)	0
2.3             	p               	3.98970742e-01	(6.09387686e-01 8.30145538e-02 2.29492899e-19)	1	1.95027855e+00	(1.09362847e-01 3.40425774e-02 -1.46732709e-12)	0
2.32            	p               	3.94232733e-01	(6.40637625e-01 7.75732234e-02 -3.27702793e-19)	1	1.94860726e+00	(1.09362847e-01 3.40425774e-02 -1.46732709e-12)	0
2.34            	p               	3.95820104e-01	(6.40637625e-01 7.75732234e-02 -3.27702793e-19)	1	1.94757164e+00	(1.09362847e-01 3.40425774e-02 -1.46732709e-12)	0
2.36            	p               	4.01202260e-01	(6.40637625e-01 7.75732234e-02 -3.27702793e-19)	1	1.94806377e+00	(1.09362847e-01 3.40425774e-02 -1.46732709e-12)	0
2.38            	p               	3.98122934e-01	(6.40637625e-01 7.75732234e-02 -3.27702793e-19)	1	1.94916671e+00	(1.09362847e-01 3.40425774e-02 -1.46732709e-12)	0
2.4             	p               	3.94464752e-01	(6.40637625e-01 7.75732234e-02 -3.27702793e-19)	1	1.94920962e+00	(1.09362847e-01 3.40425774e-02 -1.46732709e-12)	0
2.42            	p               	3.97933167e-01	(6.40637625e-01 7.75732234e-02 -3.27702793e-19)	1	1.94721366e+00	(1.09362847e-01 3.40425774e-02 -1.46732709e-12)	0
2.44            	p               	4.00577952e-01	(6.40637625e-01 7.75732234e-02 -3.27702793e-19)	1	1.94495105e+00	(1.09362847e-01 3.40425774e-02 -1.46732709e-12)	0
2.46            	p               	3.95691877e-01	(6.40637625e-01 7.75732234e-02 -3.27702793e-19)	1	1.94608684e+00	(1.09362847e-01 3.40425774e-02 -1.46732709e-12)	0
2.48            	p               	3.95006107e-01	(6.40637625e-01 7.75732234e-02 -3.27702793e-19)	1	1.94917062e+00	(1.09362847e-01 3.40425774e-02 -1.46732709e-12)	0
2.5             	p               	3.99756418e-01	(6.40637625e-01 7.75732234e-02 -3.27702793e-19)	1	1.95027364e+00	(1.09362847e-01 3.40425774e-02 -1.46732709e-12)	0
2.52            	p               	3.98110058e-01	(6.40637625e-01 7.75732234e-02 -3.27702793e-19)	1	1.95062635e+00	(1.09362847e-01 3.40425774e-02 -1.46732709e-12)	0
2.54            	p               	3.93876253e-01	(6.40637625e-01 7.75732234e-02 -3.27702793e-19)	1	1.95065444e+00	(1.09362847e-01 3.40425774e-02 -1.46732709e-12)	0
2.56            	p               	3.96833704e-01	(6.40637625e-01 7.75732234e-02 -3.27702793e-19)	1	1.94924461e+00	(1.09362847e-01 3.40425774e-02 -1.46732709e-12)	0
2.58            	p               	4.02085268e-01	(6.40637625e-01 7.75732234e-02 -3.27702793e-19)	1	1.94778667e+00	(1.09362847e-01 3.40425774e-02 -1.46732709e-12)	0
2.6             	p               	3.97391086e-01	(6.40637625e-01 7.75732234e-02 -3.27702793e-19)	1	1.94774400e+00	(1.09362847e-01 3.40425774e-02 -1.46732709e-12)	0
2.62            	p               	3.94025007e-01	(6.40637625e-01 7.75732234e-02 -3.27702793e-19)	1	1.94880299e+00	(1.09362847e-01 3.40425774e-02 -1.46732709e-12)	0
2.64            	p               	3.98225969e-01	(6.40637625e-01 7.75732234e-02 -3.27702793e-19)	1	1.94939108e+00	(1.09362847e-01 3.40425774e-02 -1.46732709e-12)	0
2.66            	p               	4.01351654e-01	(6.09387686e-01 8.30145538e-02 2.29492899e-19)	1	1.94811642e+00	(1.09362847e-01 3.40425774e-02 -1.46732709e-12)	0
2.68            	p               	3.95828061e-01	(6.09387686e-01 8.30145538e-02 2.29492899e-19)	1	1.94551348e+00	(1.09362847e-01 3.40425774e-02 -1.46732709e-12)	0
2.7             	p               	3.93836216e-01	(6.40637625e-01 7.75732234e-02 -3.27702793e-19)	1	1.94523219e+00	(1.09362847e-01 3.40425774e-02 -1.46732709e-12)	0
2.72            	p               	3.97346783e-01	(6.40637625e-01 7.75732234e-02 -3.27702793e-19)	1	1.94820070e+00	(1.09362847e-01 3.40425774e-02 -1.46732709e-12)	0
2.74            	p               	4.02067376e-01	(6.09387686e-01 8.30145538e-02 2.29492899e-19)	1	1.95011541e+00	(1.09362847e-01 3.40425774e-02 -1.46732709e-12)	0
2.76            	p               	3.94106751e-01	(6.09387686e-01 8.30145538e-02 2.29492899e-19)	1	1.95046813e+00	(1.09362847e-01 3.40425774e-02 -1.46732709e-12)	0
2.78            	p               	3.93151736e-01	(6.40637625e-01 7.75732234e-02 -3.27702793e-19)	1	1.95081333e+00	(1.09362847e-01 3.40425774e-02 -1.46732709e-12)	0
2.8             	p               	3.95746410e-01	(6.40637625e-01 7.75732234e-02 -3.27702793e-19)	1	1.94985371e+00	(1.09362847e-01 3.40425774e-02 -1.46732709e-12)	0
2.82            	p               	4.02446103e-01	(6.40637625e-01 7.75732234e-02 -3.27702793e-19)	1	1.94816872e+00	(1.09362847e-01 3.40425774e-02 -1.46732709e-12)	0
2.84            	p               	3.95867084e-01	(6.09387686e-01 8.30145538e-02 2.29492899e-19)	1	1.94756117e+00	(1.09362847e-01 3.40425774e-02 -1.46732709e-12)	0
2.86            	p               	3.94628525e-01	(6.40637625e-01 7.75732234e-02 -3.27702793e-19)	1	1.94839151e+00	(1.09362847e-01 3.40425774e-02 -1.46732709e-12)	0
2.88            	p               	3.94914013e-01	(6.40637625e-01 7.75732234e-02 -3.27702793e-19)	1	1.94935432e+00	(1.09362847e-01 3.40425774e-02 -1.46732709e-12)	0
2.9             	p               	4.00231284e-01	(6.40637625e-01 7.75732234e-02 -3.27702793e-19)	1	1.94882762e+00	(1.09362847e-01 3.40425774e-02 -1.46732709e-12)	0
2.92            	p               	3.98787374e-01	(6.09387686e-01 8.30145538e-02 2.29492899e-19)	1	1.94639112e+00	(1.09362847e-01 3.40425774e-02 -1.46732709e-12)	0
2.94            	p               	3.95062534e-01	(6.09387686e-01 8.30145538e-02 2.29492899e-19)	1	1.94485772e+00	(1.09362847e-01 3.40425774e-02 -1.46732709e-12)	0
2.96            	p               	3.93802364e-01	(6.40637625e-01 7.75732234e-02 -3.27702793e-19)	1	1.94704655e+00	(1.09362847e-01 3.40425774e-02 -1.46732709e-12)	0
2.98            	p               	3.96926513e-01	(6.40637625e-01 7.75732234e-02 -3.27702793e-19)	1	1.94976088e+00	(1.09362847e-01 3.40425774e-02 -1.46732709e-12)	0
3               	p               	4.02461471e-01	(6.40637625e-01 7.75732234e-02 -3.27702793e-19)	1	1.95041033e+00	(1.09362847e-01 3.40425774e-02 -1.46732709e-12)	0
3.02            	p               	3.94222430e-01	(6.09387686e-01 8.30145538e-02 2.29492899e-19)	1	1.95079920e+00	(1.09362847e-01 3.40425774e-02 -1.46732709e-12)	0
3.04            	p               	3.93905396e-01	(6.40637625e-01 7.75732234e-02 -3.27702793e-19)	1	1.95032232e+00	(1.09362847e-01 3.40425774e-02 -1.46732709e-12)	0
3.06            	p               	3.95109853e-01	(6.40637625e-01 7.75732234e-02 -3.27702793e-19)	1	1.94866509e+00	(1.09362847e-01 3.40425774e-02 -1.46732709e-12)	0
3.08            	p               	4.00785162e-01	(6.40637625e-01 7.75732234e-02 -3.27702793e-19)	1	1.94758209e+00	(1.09362847e-01 3.40425774e-02 -1.46732709e-12)	0
3.1             	p               	3.97829149e-01	(6.09387686e-01 8.30145538e-02 2.29492899e-19)	1	1.94802164e+00	(1.09362847e-01 3.40425774e-02 -1.46732709e-12)	0
3.12            	p               	3.95854467e-01	(6.09387686e-01 8.30145538e-02 2.29492899e-19)	1	1.94913142e+00	(1.09362847e-01 3.40425774e-02 -1.46732709e-12)	0
3.14            	p               	3.94361368e-01	(6.40637625e-01 7.75732234e-02 -3.27702793e-19)	1	1.94923772e+00	(1.09362847e-01 3.40425774e-02 -1.46732709e-12)	0
3.16            	p               	3.97829745e-01	(6.40637625e-01 7.75732234e-02 -3.27702793e-19)	1	1.94730362e+00	(1.09362847e-01 3.40425774e-02 -1.46732709e-12)	0
3.18            	p               	4.03119600e-01	(6.40637625e-01 7.75732234e-02 -3.27702793e-19)	1	1.94499178e+00	(1.09362847e-01 3.40425774e-02 -1.46732709e-12)	0
3.2             	p               	3.94262430e-01	(6.09387686e-01 8.30145538e-02 2.29492899e-19)	1	1.94600002e+00	(1.09362847e-01 3.40425774e-02 -1.46732709e-12)	0
3.22            	p               	3.93763969e-01	(6.40637625e-01 7.75732234e-02 -3.27702793e-19)	1	1.94908541e+00	(1.09362847e-01 3.40425774e-02 -1.46732709e-12)	0
3.24            	p               	3.94770914e-01	(6.40637625e-01 7.75732234e-02 -3.27702793e-19)	1	1.95025264e+00	(1.09362847e-01 3.40425774e-02 -1.46732709e-12)	0
3.26            	p               	4.00301764e-01	(6.40637625e-01 7.75732234e-02 -3.27702793e-19)	1	1.95061544e+00	(1.09362847e-01 3.40425774e-02 -1.46732709e-12)	0
3.28            	p               	3.97237520e-01	(6.09387686e-01 8.30145538e-02 2.29492899e-19)	1	1.95068896e+00	(1.09362847e-01 3.40425774e-02 -1.46732709e-12)	0
3.3             	p               	3.95653348e-01	(6.40637625e-01 7.75732234e-02 -3.27702793e-19)	1	1.94930367e+00	(1.09362847e-01 3.40425774e-02 -1.46732709e-12)	0
3.32            	p               	3.94285100e-01	(6.40637625e-01 7.75732234e-02 -3.27702793e-19)	1	1.94780644e+00	(1.09362847e-01 3.40425774e-02 -1.46732709e-12)	0
3.34            	p               	3.97673684e-01	(6.40637625e-01 7.75732234e-02 -3.27702793e-19)	1	1.94771122e+00	(1.09362847e-01 3.40425774e-02 -1.46732709e-12)	0
3.36            	p               	4.02984654e-01	(6.40637625e-01 7.75732234e-02 -3.27702793e-19)	1	1.94876619e+00	(1.09362847e-01 3.40425774e-02 -1.46732709e-12)	0
3.38            	p               	3.94569184e-01	(6.09387686e-01 8.30145538e-02 2.29492899e-19)	1	1.94940554e+00	(1.09362847e-01 3.40425774e-02 -1.46732709e-12)	0
3.4             	p               	3.94354268e-01	(6.40637625e-01 7.75732234e-02 -3.27702793e-19)	1	1.94820022e+00	(1.09362847e-01 3.40425774e-02 -1.46732709e-12)	0
3.42            	p               	3.95316428e-01	(6.40637625e-01 7.75732234e-02 -3.27702793e-19)	1	1.94558788e+00	(1.09362847e-01 3.40425774e-02 -1.46732709e-12)	0
3.44            	p               	4.00527021e-01	(6.40637625e-01 7.75732234e-02 -3.27702793e-19)	1	1.94517510e+00	(1.09362847e-01 3.40425774e-02 -1.46732709e-12)	0
3.46            	p               	3.97527260e-01	(6.09387686e-01 8.30145538e-02 2.29492899e-19)	1	1.94810126e+00	(1.09362847e-01 3.40425774e-02 -1.46732709e-12)	0
3.48            	p               	3.94649348e-01	(6.09387686e-01 8.30145538e-02 2.29492899e-19)	1	1.95012275e+00	(1.09362847e-01 3.40425774e-02 -1.46732709e-12)	0
3.5             	p               	3.93588766e-01	(6.40637625e-01 7.75732234e-02 -3.27702793e-19)	1	1.95051827e+00	(1.09362847e-01 3.40425774e-02 -1.46732709e-12)	0
3.52            	p               	3.96604398e-01	(6.40637625e-01 7.75732234e-02 -3.27702793e-19)	1	1.95083247e+00	(1.09362847e-01 3.40425774e-02 -1.46732709e-12)	0
3.54            	p               	4.02173470e-01	(6.40637625e-01 7.75732234e-02 -3.27702793e-19)	1	1.94985804e+00	(1.09362847e-01 3.40425774e-02 -1.46732709e-12)	0
3.56            	p               	3.95073681e-01	(6.09387686e-01 8.30145538e-02 2.29492899e-19)	1	1.94816876e+00	(1.09362847e-01 3.40425774e-02 -1.46732709e-12)	0
3.58            	p               	3.94874220e-01	(6.40637625e-01 7.75732234e-02 -3.27702793e-19)	1	1.94754641e+00	(1.09362847e-01 3.40425774e-02 -1.46732709e-12)	0
3.6             	p               	3.95138804e-01	(6.40637625e-01 7.75732234e-02 -3.27702793e-19)	1	1.94837317e+00	(1.09362847e-01 3.40425774e-02 -1.46732709e-12)	0
3.62            	p               	3.99449798e-01	(6.40637625e-01 7.75732234e-02 -3.27702793e-19)	1	1.94936129e+00	(1.09362847e-01 3.40425774e-02 -1.46732709e-12)	0
3.64            	p               	3.99666843e-01	(6.09387686e-01 8.30145538e-02 2.29492899e-19)	1	1.94886607e+00	(1.09362847e-01 3.40425774e-02 -1.46732709e-12)	0