# Force and moment coefficients
# dragDir       : (1.00000000e+00 0.00000000e+00 0.00000000e+00)
# sideDir       : (0.00000000e+00 0.00000000e+00 -1.00000000e+00)
# liftDir       : (0.00000000e+00 1.00000000e+00 0.00000000e+00)
# rollAxis      : (1.00000000e+00 0.00000000e+00 0.00000000e+00)
# pitchAxis     : (0.00000000e+00 0.00000000e+00 -1.00000000e+00)
# yawAxis       : (0.00000000e+00 1.00000000e+00 0.00000000e+00)
# magUInf       : 2.00000000e+00
# lRef          : 1.00000000e+00
# Aref          : 1.00000000e-01
# CofR          : (2.50000000e-01 0.00000000e+00 0.00000000e+00)
#
# Time          	Cd              	Cd(f)           	Cd(r)           	Cl              	Cl(f)           	Cl(r)           	CmPitch         	CmRoll          	CmYaw           	Cs              	Cs(f)           	Cs(r)           
0.02            	3.23729957e-02	1.61864978e-02	1.61864978e-02	-3.92231790e-01	-1.42510057e-01	-2.49721733e-01	5.36058381e-02	-1.45347176e-19	-1.18893220e-20	0.00000000e+00	-1.18893220e-20	1.18893220e-20
0.04            	3.14952414e-02	1.57476207e-02	1.57476207e-02	-3.92941161e-01	-1.41188282e-01	-2.51752879e-01	5.52822988e-02	-1.44614042e-19	-1.15307465e-20	0.00000000e+00	-1.15307465e-20	1.15307465e-20
0.06            	3.14848122e-02	1.57424061e-02	1.57424061e-02	-3.91477698e-01	-1.40782667e-01	-2.50695032e-01	5.49561826e-02	-1.43799189e-19	-1.14589840e-20	0.00000000e+00	-1.14589840e-20	1.14589840e-20
0.08            	3.15524369e-02	1.57762185e-02	1.57762185e-02	-3.90773110e-01	-1.40614389e-01	-2.50158722e-01	5.47721666e-02	-1.43518221e-19	-1.14818948e-20	0.00000000e+00	-1.14818948e-20	1.14818948e-20
0.1             	3.16432160e-02	1.58216080e-02	1.58216080e-02	-3.90244927e-01	-1.40543543e-01	-2.49701384e-01	5.45789206e-02	-1.42973500e-19	-1.15969688e-20	0.00000000e+00	-1.15969688e-20	1.15969688e-20
0.12            	3.17201879e-02	1.58600939e-02	1.58600939e-02	-3.89664969e-01	-1.40460107e-01	-2.49204863e-01	5.43723779e-02	-1.42750711e-19	-1.16381938e-20	0.00000000e+00	-1.16381938e-20	1.16381938e-20
0.14            	3.17991609e-02	1.58995804e-02	1.58995804e-02	-3.89082365e-01	-1.40406687e-01	-2.48675678e-01	5.41344959e-02	-1.42466773e-19	-1.16507580e-20	0.00000000e+00	-1.16507580e-20	1.16507580e-20
0.16            	3.18692618e-02	1.59346309e-02	1.59346309e-02	-3.88455171e-01	-1.40340304e-01	-2.48114867e-01	5.38872812e-02	-1.42093889e-19	-1.16648529e-20	0.00000000e+00	-1.16648529e-20	1.16648529e-20
0.18            	3.20550194e-02	1.60275097e-02	1.60275097e-02	-3.87826604e-01	-1.40414146e-01	-2.47412458e-01	5.34991558e-02	-1.41320044e-19	-1.18052999e-20	0.00000000e+00	-1.18052999e-20	1.18052999e-20
0.2             	3.25284337e-02	1.62642168e-02	1.62642168e-02	-3.86774982e-01	-1.40859360e-01	-2.45915621e-01	5.25281305e-02	-1.40769705e-19	-1.20009540e-20	0.00000000e+00	-1.20009540e-20	1.20009540e-20
0.22            	3.30960115e-02	1.65480058e-02	1.65480058e-02	-3.85646986e-01	-1.41449676e-01	-2.44197310e-01	5.13738171e-02	-1.40253882e-19	-1.22287093e-20	0.00000000e+00	-1.22287093e-20	1.22287093e-20
0.24            	3.36992863e-02	1.68496431e-02	1.68496431e-02	-3.84559940e-01	-1.42135630e-01	-2.42424310e-01	5.01443400e-02	-1.39816538e-19	-1.24643763e-20	0.00000000e+00	-1.24643763e-20	1.24643763e-20
0.26            	3.43103786e-02	1.71551893e-02	1.71551893e-02	-3.83519584e-01	-1.42881354e-01	-2.40638229e-01	4.88784376e-02	-1.39406836e-19	-1.27046020e-20	0.00000000e+00	-1.27046020e-20	1.27046020e-20
0.28            	3.49154473e-02	1.74577236e-02	1.74577236e-02	-3.82493649e-01	-1.43663109e-01	-2.38830539e-01	4.75837150e-02	-1.39077674e-19	-1.29333616e-20	0.00000000e+00	-1.29333616e-20	1.29333616e-20
0.3             	3.54998580e-02	1.77499290e-02	1.77499290e-02	-3.81545823e-01	-1.44484331e-01	-2.37061492e-01	4.62885802e-02	-1.38815693e-19	-1.31541120e-20	0.00000000e+00	-1.31541120e-20	1.31541120e-20
0.32            	3.60686487e-02	1.80343244e-02	1.80343244e-02	-3.80663152e-01	-1.45348363e-01	-2.35314789e-01	4.49832134e-02	-1.38538816e-19	-1.33761567e-20	0.00000000e+00	-1.33761567e-20	1.33761567e-20
0.34            	3.66013540e-02	1.83006770e-02	1.83006770e-02	-3.79920101e-01	-1.46223241e-01	-2.33696860e-01	4.37368096e-02	-1.38329437e-19	-1.35793827e-20	0.00000000e+00	-1.35793827e-20	1.35793827e-20
0.36            	3.70693885e-02	1.85346943e-02	1.85346943e-02	-3.79441248e-01	-1.47050289e-01	-2.32390959e-01	4.26703349e-02	-1.38875335e-19	-1.36433354e-20	0.00000000e+00	-1.36433354e-20	1.36433354e-20
0.38            	3.74846100e-02	1.87423050e-02	1.87423050e-02	-3.79174962e-01	-1.47847071e-01	-2.31327891e-01	4.17404098e-02	-1.39559844e-19	-1.36763869e-20	0.00000000e+00	-1.36763869e-20	1.36763869e-20
0.4             	3.76632607e-02	1.88316304e-02	1.88316304e-02	-3.80111803e-01	-1.48322864e-01	-2.31788939e-01	4.17330372e-02	-1.40127761e-19	-1.37227889e-20	0.00000000e+00	-1.37227889e-20	1.37227889e-20
0.42            	3.77698910e-02	1.88849455e-02	1.88849455e-02	-3.81315736e-01	-1.48685781e-01	-2.32629956e-01	4.19720876e-02	-1.40662773e-19	-1.37707358e-20	0.00000000e+00	-1.37707358e-20	1.37707358e-20
0.44            	3.78592156e-02	1.89296078e-02	1.89296078e-02	-3.82534971e-01	-1.49023771e-01	-2.33511200e-01	4.22437147e-02	-1.41201521e-19	-1.38140565e-20	0.00000000e+00	-1.38140565e-20	1.38140565e-20
0.46            	3.79334525e-02	1.89667262e-02	1.89667262e-02	-3.83741505e-01	-1.49334152e-01	-2.34407353e-01	4.25366008e-02	-1.41711455e-19	-1.38503789e-20	0.00000000e+00	-1.38503789e-20	1.38503789e-20
0.48            	3.79922036e-02	1.89961018e-02	1.89961018e-02	-3.84914213e-01	-1.49608713e-01	-2.35305500e-01	4.28483934e-02	-1.42224741e-19	-1.38779782e-20	0.00000000e+00	-1.38779782e-20	1.38779782e-20
0.5             	3.80372163e-02	1.90186082e-02	1.90186082e-02	-3.86059651e-01	-1.49859875e-01	-2.36199776e-01	4.31699503e-02	-1.42723222e-19	-1.39020719e-20	0.00000000e+00	-1.39020719e-20	1.39020719e-20
0.52            	3.80655778e-02	1.90327889e-02	1.90327889e-02	-3.87166736e-01	-1.50083405e-01	-2.37083330e-01	4.34999626e-02	-1.43203917e-19	-1.39235547e-20	0.00000000e+00	-1.39235547e-20	1.39235547e-20
0.54            	3.80794750e-02	1.90397375e-02	1.90397375e-02	-3.88196276e-01	-1.50269708e-01	-2.37926568e-01	4.38284298e-02	-1.43665217e-19	-1.39392471e-20	0.00000000e+00	-1.39392471e-20	1.39392471e-20
0.56            	3.80813163e-02	1.90406581e-02	1.90406581e-02	-3.89193407e-01	-1.50436851e-01	-2.38756556e-01	4.41598525e-02	-1.44118317e-19	-1.39468004e-20	0.00000000e+00	-1.39468004e-20	1.39468004e-20
0.58            	3.80741848e-02	1.90370924e-02	1.90370924e-02	-3.90165771e-01	-1.50596812e-01	-2.39568959e-01	4.44860733e-02	-1.44535855e-19	-1.39479939e-20	0.00000000e+00	-1.39479939e-20	1.39479939e-20
0.6             	3.80556345e-02	1.90278172e-02	1.90278172e-02	-3.91086481e-01	-1.50735462e-01	-2.40351019e-01	4.48077783e-02	-1.44911088e-19	-1.39463366e-20	0.00000000e+00	-1.39463366e-20	1.39463366e-20
0.62            	3.80261516e-02	1.90130758e-02	1.90130758e-02	-3.91959665e-01	-1.50855069e-01	-2.41104596e-01	4.51247639e-02	-1.45260681e-19	-1.39436920e-20	0.00000000e+00	-1.39436920e-20	1.39436920e-20
0.64            	3.79885794e-02	1.89942897e-02	1.89942897e-02	-3.92776359e-01	-1.50962026e-01	-2.41814333e-01	4.54261535e-02	-1.45589824e-19	-1.39365900e-20	0.00000000e+00	-1.39365900e-20	1.39365900e-20
0.66            	3.79394447e-02	1.89697224e-02	1.89697224e-02	-3.93513563e-01	-1.51044313e-01	-2.42469250e-01	4.57124687e-02	-1.45923311e-19	-1.39179666e-20	0.00000000e+00	-1.39179666e-20	1.39179666e-20
0.68            	3.78750948e-02	1.89375474e-02	1.89375474e-02	-3.94213216e-01	-1.51108064e-01	-2.43105153e-01	4.59985446e-02	-1.46233764e-19	-1.38948165e-20	0.00000000e+00	-1.38948165e-20	1.38948165e-20
0.7             	3.78007532e-02	1.89003766e-02	1.89003766e-02	-3.94880959e-01	-1.51166326e-01	-2.43714633e-01	4.62741532e-02	-1.46507915e-19	-1.38689786e-20	0.00000000e+00	-1.38689786e-20	1.38689786e-20
0.72            	3.77143508e-02	1.88571754e-02	1.88571754e-02	-3.95510254e-01	-1.51213551e-01	-2.44296703e-01	4.65415757e-02	-1.46743794e-19	-1.38369012e-20	0.00000000e+00	-1.38369012e-20	1.38369012e-20
0.74            	3.76180168e-02	1.88090084e-02	1.88090084e-02	-3.96106499e-01	-1.51244210e-01	-2.44862289e-01	4.68090394e-02	-1.46992297e-19	-1.37968519e-20	0.00000000e+00	-1.37968519e-20	1.37968519e-20
0.76            	3.75216667e-02	1.87608333e-02	1.87608333e-02	-3.96684516e-01	-1.51271862e-01	-2.45412653e-01	4.70703955e-02	-1.47222514e-19	-1.37566172e-20	0.00000000e+00	-1.37566172e-20	1.37566172e-20
0.78            	3.74266838e-02	1.87133419e-02	1.87133419e-02	-3.97217527e-01	-1.51280700e-01	-2.45936827e-01	4.73280637e-02	-1.47414835e-19	-1.37215832e-20	0.00000000e+00	-1.37215832e-20	1.37215832e-20
0.8             	3.73331953e-02	1.86665977e-02	1.86665977e-02	-3.97710537e-01	-1.51271762e-01	-2.46438775e-01	4.75835069e-02	-1.47593364e-19	-1.36898834e-20	0.00000000e+00	-1.36898834e-20	1.36898834e-20
0.82            	3.72455607e-02	1.86227804e-02	1.86227804e-02	-3.98199424e-01	-1.51267860e-01	-2.46931564e-01	4.78318521e-02	-1.47798042e-19	-1.36566928e-20	0.00000000e+00	-1.36566928e-20	1.36566928e-20
0.84            	3.71637743e-02	1.85818871e-02	1.85818871e-02	-3.98683182e-01	-1.51268029e-01	-2.47415152e-01	4.80735614e-02	-1.47978285e-19	-1.36246390e-20	0.00000000e+00	-1.36246390e-20	1.36246390e-20
0.86            	3.70861253e-02	1.85430627e-02	1.85430627e-02	-3.99131291e-01	-1.51256411e-01	-2.47874879e-01	4.83092341e-02	-1.48121989e-19	-1.35988907e-20	0.00000000e+00	-1.35988907e-20	1.35988907e-20
0.88            	3.70142277e-02	1.85071138e-02	1.85071138e-02	-3.99557318e-01	-1.51244223e-01	-2.48313096e-01	4.85344364e-02	-1.48257271e-19	-1.35747325e-20	0.00000000e+00	-1.35747325e-20	1.35747325e-20
0.9             	3.69438106e-02	1.84719053e-02	1.84719053e-02	-3.99964497e-01	-1.51227820e-01	-2.48736678e-01	4.87544291e-02	-1.48405613e-19	-1.35475714e-20	0.00000000e+00	-1.35475714e-20	1.35475714e-20
0.92            	3.68741465e-02	1.84370732e-02	1.84370732e-02	-4.00326220e-01	-1.51194576e-01	-2.49131644e-01	4.89685337e-02	-1.48532787e-19	-1.35238964e-20	0.00000000e+00	-1.35238964e-20	1.35238964e-20
0.94            	3.68099667e-02	1.84049833e-02	1.84049833e-02	-4.00667500e-01	-1.51159799e-01	-2.49507701e-01	4.91739510e-02	-1.48637552e-19	-1.35076309e-20	0.00000000e+00	-1.35076309e-20	1.35076309e-20
0.96            	3.67534674e-02	1.83767337e-02	1.83767337e-02	-4.01003231e-01	-1.51135352e-01	-2.49867879e-01	4.93662634e-02	-1.48748963e-19	-1.34893481e-20	0.00000000e+00	-1.34893481e-20	1.34893481e-20
0.98            	3.66986806e-02	1.83493403e-02	1.83493403e-02	-4.01326755e-01	-1.51109781e-01	-2.50216974e-01	4.95535965e-02	-1.48863752e-19	-1.34681626e-20	0.00000000e+00	-1.34681626e-20	1.34681626e-20
1               	3.66486303e-02	1.83243152e-02	1.83243152e-02	-4.01622258e-01	-1.51081958e-01	-2.50540300e-01	4.97291707e-02	-1.48955334e-19	-1.34518126e-20	0.00000000e+00	-1.34518126e-20	1.34518126e-20
1.02            	3.66039654e-02	1.83019827e-02	1.83019827e-02	-4.01894044e-01	-1.51054893e-01	-2.50839151e-01	4.98921288e-02	-1.49014349e-19	-1.34406292e-20	0.00000000e+00	-1.34406292e-20	1.34406292e-20
1.04            	3.65591264e-02	1.82795632e-02	1.82795632e-02	-4.02126768e-01	-1.51014545e-01	-2.51112223e-01	5.00488389e-02	-1.49090036e-19	-1.34257557e-20	0.00000000e+00	-1.34257557e-20	1.34257557e-20
1.06            	3.65158384e-02	1.82579192e-02	1.82579192e-02	-4.02338522e-01	-1.50972727e-01	-2.51365795e-01	5.01965344e-02	-1.49173785e-19	-1.34119295e-20	0.00000000e+00	-1.34119295e-20	1.34119295e-20
1.08            	3.64806720e-02	1.82403360e-02	1.82403360e-02	-4.02542591e-01	-1.50942542e-01	-2.51600049e-01	5.03287535e-02	-1.49232697e-19	-1.34042433e-20	0.00000000e+00	-1.34042433e-20	1.34042433e-20
1.1             	3.64513632e-02	1.82256816e-02	1.82256816e-02	-4.02727225e-01	-1.50916422e-01	-2.51810803e-01	5.04471903e-02	-1.49260670e-19	-1.33982427e-20	0.00000000e+00	-1.33982427e-20	1.33982427e-20
1.12            	3.64239242e-02	1.82119621e-02	1.82119621e-02	-4.02889978e-01	-1.50888940e-01	-2.52001038e-01	5.05560488e-02	-1.49308562e-19	-1.33895968e-20	0.00000000e+00	-1.33895968e-20	1.33895968e-20
1.14            	3.64014232e-02	1.82007116e-02	1.82007116e-02	-4.03039109e-01	-1.50871182e-01	-2.52167928e-01	5.06483731e-02	-1.49340681e-19	-1.33833886e-20	0.00000000e+00	-1.33833886e-20	1.33833886e-20
1.16            	3.63817779e-02	1.81908890e-02	1.81908890e-02	-4.03144922e-01	-1.50846259e-01	-2.52298663e-01	5.07262020e-02	-1.49333390e-19	-1.33833995e-20	0.00000000e+00	-1.33833995e-20	1.33833995e-20
1.18            	3.63651425e-02	1.81825713e-02	1.81825713e-02	-4.03201678e-01	-1.50814844e-01	-2.52386834e-01	5.07859947e-02	-1.49322704e-19	-1.33848663e-20	0.00000000e+00	-1.33848663e-20	1.33848663e-20
1.2             	3.63543013e-02	1.81771507e-02	1.81771507e-02	-4.03253569e-01	-1.50800766e-01	-2.52452803e-01	5.08260182e-02	-1.49343466e-19	-1.33840814e-20	0.00000000e+00	-1.33840814e-20	1.33840814e-20
1.22            	3.63508937e-02	1.81754469e-02	1.81754469e-02	-4.03292591e-01	-1.50801752e-01	-2.52490839e-01	5.08445436e-02	-1.49346175e-19	-1.33835077e-20	0.00000000e+00	-1.33835077e-20	1.33835077e-20
1.24            	3.63499701e-02	1.81749850e-02	1.81749850e-02	-4.03305815e-01	-1.50800238e-01	-2.52505577e-01	5.08526698e-02	-1.49336636e-19	-1.33847141e-20	0.00000000e+00	-1.33847141e-20	1.33847141e-20
1.26            	3.63518882e-02	1.81759441e-02	1.81759441e-02	-4.03312571e-01	-1.50803702e-01	-2.52508869e-01	5.08525831e-02	-1.49338073e-19	-1.33841891e-20	0.00000000e+00	-1.33841891e-20	1.33841891e-20
1.28            	3.63508145e-02	1.81754073e-02	1.81754073e-02	-4.03328201e-01	-1.50809069e-01	-2.52519132e-01	5.08550315e-02	-1.49338211e-19	-1.33831964e-20	0.00000000e+00	-1.33831964e-20	1.33831964e-20
1.3             	3.63470855e-02	1.81735428e-02	1.81735428e-02	-4.03316882e-01	-1.50798744e-01	-2.52518137e-01	5.08596964e-02	-1.49321988e-19	-1.33847190e-20	0.00000000e+00	-1.33847190e-20	1.33847190e-20
1.32            	3.63461776e-02	1.81730888e-02	1.81730888e-02	-4.03297966e-01	-1.50790099e-01	-2.52507867e-01	5.08588842e-02	-1.49323950e-19	-1.33864572e-20	0.00000000e+00	-1.33864572e-20	1.33864572e-20
1.34            	3.63468052e-02	1.81734026e-02	1.81734026e-02	-4.03308596e-01	-1.50795740e-01	-2.52512856e-01	5.08585580e-02	-1.49345722e-19	-1.33841891e-20	0.00000000e+00	-1.33841891e-20	1.33841891e-20
1.36            	3.63470833e-02	1.81735416e-02	1.81735416e-02	-4.03320465e-01	-1.50800323e-01	-2.52520142e-01	5.08599094e-02	-1.49348412e-19	-1.33827019e-20	0.00000000e+00	-1.33827019e-20	1.33827019e-20
1.38            	3.63488802e-02	1.81744401e-02	1.81744401e-02	-4.03321299e-01	-1.50803099e-01	-2.52518200e-01	5.08575504e-02	-1.49329374e-19	-1.33858677e-20	0.00000000e+00	-1.33858677e-20	1.33858677e-20
1.4             	3.63512129e-02	1.81756064e-02	1.81756064e-02	-4.03327354e-01	-1.50808331e-01	-2.52519023e-01	5.08553458e-02	-1.49326314e-19	-1.33856562e-20	0.00000000e+00	-1.33856562e-20	1.33856562e-20
1.42            	3.63485464e-02	1.81742732e-02	1.81742732e-02	-4.03322601e-01	-1.50803714e-01	-2.52518886e-01	5.08575860e-02	-1.49339507e-19	-1.33817988e-20	0.00000000e+00	-1.33817988e-20	1.33817988e-20
1.44            	3.63453515e-02	1.81726757e-02	1.81726757e-02	-4.03306296e-01	-1.50792995e-01	-2.52513301e-01	5.08601531e-02	-1.49342267e-19	-1.33820982e-20	0.00000000e+00	-1.33820982e-20	1.33820982e-20
1.46            	3.63460416e-02	1.81730208e-02	1.81730208e-02	-4.03305288e-01	-1.50792929e-01	-2.52512360e-01	5.08597154e-02	-1.49329525e-19	-1.33871360e-20	0.00000000e+00	-1.33871360e-20	1.33871360e-20
1.48            	3.63481345e-02	1.81740672e-02	1.81740672e-02	-4.03312175e-01	-1.50798166e-01	-2.52514009e-01	5.08579213e-02	-1.49332992e-19	-1.33855025e-20	0.00000000e+00	-1.33855025e-20	1.33855025e-20
1.5             	3.63476359e-02	1.81738179e-02	1.81738179e-02	-4.03322081e-01	-1.50801235e-01	-2.52520847e-01	5.08598058e-02	-1.49348871e-19	-1.33825002e-20	0.00000000e+00	-1.33825002e-20	1.33825002e-20
1.52            	3.63497392e-02	1.81748696e-02	1.81748696e-02	-4.03331489e-01	-1.50808331e-01	-2.52523158e-01	5.08574131e-02	-1.49340867e-19	-1.33834009e-20	0.00000000e+00	-1.33834009e-20	1.33834009e-20
1.54            	3.63505134e-02	1.81752567e-02	1.81752567e-02	-4.03323422e-01	-1.50806549e-01	-2.52516873e-01	5.08551622e-02	-1.49320284e-19	-1.33857895e-20	0.00000000e+00	-1.33857895e-20	1.33857895e-20
1.56            	3.63471148e-02	1.81735574e-02	1.81735574e-02	-4.03305448e-01	-1.50794428e-01	-2.52511020e-01	5.08582959e-02	-1.49330803e-19	-1.33833829e-20	0.00000000e+00	-1.33833829e-20	1.33833829e-20
1.58            	3.63452095e-02	1.81726047e-02	1.81726047e-02	-4.03304693e-01	-1.50792247e-01	-2.52512446e-01	5.08600999e-02	-1.49350245e-19	-1.33827744e-20	0.00000000e+00	-1.33827744e-20	1.33827744e-20
1.6             	3.63471616e-02	1.81735808e-02	1.81735808e-02	-4.03312898e-01	-1.50798142e-01	-2.52514756e-01	5.08583067e-02	-1.49336732e-19	-1.33852341e-20	0.00000000e+00	-1.33852341e-20	1.33852341e-20
1.62            	3.63488809e-02	1.81744405e-02	1.81744405e-02	-4.03311819e-01	-1.50798898e-01	-2.52512921e-01	5.08570113e-02	-1.49326767e-19	-1.33864682e-20	0.00000000e+00	-1.33864682e-20	1.33864682e-20
1.64            	3.63496518e-02	1.81748259e-02	1.81748259e-02	-4.03324216e-01	-1.50805095e-01	-2.52519121e-01	5.08570131e-02	-1.49342622e-19	-1.33834182e-20	0.00000000e+00	-1.33834182e-20	1.33834182e-20
1.66            	3.63502530e-02	1.81751265e-02	1.81751265e-02	-4.03331856e-01	-1.50810239e-01	-2.52521617e-01	5.08556888e-02	-1.49344641e-19	-1.33821203e-20	0.00000000e+00	-1.33821203e-20	1.33821203e-20
1.68            	3.63481738e-02	1.81740869e-02	1.81740869e-02	-4.03312546e-01	-1.50799475e-01	-2.52513071e-01	5.08567980e-02	-1.49320298e-19	-1.33850247e-20	0.00000000e+00	-1.33850247e-20	1.33850247e-20
1.7             	3.63467117e-02	1.81733559e-02	1.81733559e-02	-4.03295098e-01	-1.50790014e-01	-2.52505085e-01	5.08575355e-02	-1.49326933e-19	-1.33857898e-20	0.00000000e+00	-1.33857898e-20	1.33857898e-20
1.72            	3.63467806e-02	1.81733903e-02	1.81733903e-02	-4.03307650e-01	-1.50796164e-01	-2.52511486e-01	5.08576611e-02	-1.49349540e-19	-1.33835616e-20	0.00000000e+00	-1.33835616e-20	1.33835616e-20
1.74            	3.63480116e-02	1.81740058e-02	1.81740058e-02	-4.03315090e-01	-1.50800867e-01	-2.52514223e-01	5.08566779e-02	-1.49344894e-19	-1.33833355e-20	0.00000000e+00	-1.33833355e-20	1.33833355e-20
1.76            	3.63498595e-02	1.81749297e-02	1.81749297e-02	-4.03314815e-01	-1.50802570e-01	-2.52512245e-01	5.08548375e-02	-1.49323722e-19	-1.33868724e-20	0.00000000e+00	-1.33868724e-20	1.33868724e-20
1.78            	3.63521300e-02	1.81760650e-02	1.81760650e-02	-4.03321854e-01	-1.50809093e-01	-2.52512761e-01	5.08518342e-02	-1.49330159e-19	-1.33850145e-20	0.00000000e+00	-1.33850145e-20	1.33850145e-20
1.8             	3.63496133e-02	1.81748067e-02	1.81748067e-02	-4.03318274e-01	-1.50805393e-01	-2.52512881e-01	5.08537439e-02	-1.49340700e-19	-1.33816507e-20	0.00000000e+00	-1.33816507e-20	1.33816507e-20
1.82            	3.63469903e-02	1.81734952e-02	1.81734952e-02	-4.03297861e-01	-1.50793791e-01	-2.52504071e-01	5.08551400e-02	-1.49332478e-19	-1.33837052e-20	0.00000000e+00	-1.33837052e-20	1.33837052e-20
1.84            	3.63479342e-02	1.81739671e-02	1.81739671e-02	-4.03293623e-01	-1.50792982e-01	-2.52500641e-01	5.08538291e-02	-1.49326122e-19	-1.33876781e-20	0.00000000e+00	-1.33876781e-20	1.33876781e-20
1.86            	3.63492456e-02	1.81746228e-02	1.81746228e-02	-4.03305549e-01	-1.50799525e-01	-2.52506025e-01	5.08532501e-02	-1.49337607e-19	-1.33847270e-20	0.00000000e+00	-1.33847270e-20	1.33847270e-20
1.88            	3.63492669e-02	1.81746334e-02	1.81746334e-02	-4.03312240e-01	-1.50802275e-01	-2.52509965e-01	5.08538446e-02	-1.49345608e-19	-1.33830846e-20	0.00000000e+00	-1.33830846e-20	1.33830846e-20
1.9             	3.63517198e-02	1.81758599e-02	1.81758599e-02	-4.03319364e-01	-1.50808434e-01	-2.52510931e-01	5.08512484e-02	-1.49327439e-19	-1.33858142e-20	0.00000000e+00	-1.33858142e-20	1.33858142e-20
1.92            	3.63525399e-02	1.81762700e-02	1.81762700e-02	-4.03313136e-01	-1.50807065e-01	-2.52506071e-01	5.08495034e-02	-1.49319070e-19	-1.33860980e-20	0.00000000e+00	-1.33860980e-20	1.33860980e-20
1.94            	3.63483222e-02	1.81741611e-02	1.81741611e-02	-4.03300057e-01	-1.50796148e-01	-2.52503910e-01	5.08538810e-02	-1.49334310e-19	-1.33827097e-20	0.00000000e+00	-1.33827097e-20	1.33827097e-20
1.96            	3.63467717e-02	1.81733858e-02	1.81733858e-02	-4.03295293e-01	-1.50792383e-01	-2.52502910e-01	5.08552635e-02	-1.49344503e-19	-1.33836535e-20	0.00000000e+00	-1.33836535e-20	1.33836535e-20
1.98            	3.63488361e-02	1.81744180e-02	1.81744180e-02	-4.03302670e-01	-1.50797605e-01	-2.52505065e-01	5.08537298e-02	-1.49324092e-19	-1.33875497e-20	0.00000000e+00	-1.33875497e-20	1.33875497e-20
2               	3.63502820e-02	1.81751410e-02	1.81751410e-02	-4.03303475e-01	-1.50798945e-01	-2.52504530e-01	5.08527926e-02	-1.49327585e-19	-1.33863227e-20	0.00000000e+00	-1.33863227e-20	1.33863227e-20
2.02            	3.63504421e-02	1.81752210e-02	1.81752210e-02	-4.03318404e-01	-1.50805084e-01	-2.52513320e-01	5.08541178e-02	-1.49343486e-19	-1.33832717e-20	0.00000000e+00	-1.33832717e-20	1.33832717e-20
2.04            	3.63517017e-02	1.81758508e-02	1.81758508e-02	-4.03323867e-01	-1.50810082e-01	-2.52513786e-01	5.08518519e-02	-1.49336789e-19	-1.33835401e-20	0.00000000e+00	-1.33835401e-20	1.33835401e-20
2.06            	3.63502622e-02	1.81751311e-02	1.81751311e-02	-4.03302215e-01	-1.50799514e-01	-2.52502700e-01	5.08515929e-02	-1.49313430e-19	-1.33862176e-20	0.00000000e+00	-1.33862176e-20	1.33862176e-20
2.08            	3.63472879e-02	1.81736439e-02	1.81736439e-02	-4.03291623e-01	-1.50789863e-01	-2.52501760e-01	5.08559484e-02	-1.49330773e-19	-1.33849323e-20	0.00000000e+00	-1.33849323e-20	1.33849323e-20
2.1             	3.63475894e-02	1.81737947e-02	1.81737947e-02	-4.03301854e-01	-1.50795884e-01	-2.52505970e-01	5.08550429e-02	-1.49349029e-19	-1.33836817e-20	0.00000000e+00	-1.33836817e-20	1.33836817e-20
2.12            	3.63492788e-02	1.81746394e-02	1.81746394e-02	-4.03307341e-01	-1.50799902e-01	-2.52507439e-01	5.08537687e-02	-1.49332724e-19	-1.33854587e-20	0.00000000e+00	-1.33854587e-20	1.33854587e-20
2.14            	3.63505381e-02	1.81752691e-02	1.81752691e-02	-4.03309659e-01	-1.50800733e-01	-2.52508926e-01	5.08540969e-02	-1.49323735e-19	-1.33868424e-20	0.00000000e+00	-1.33868424e-20	1.33868424e-20
2.16            	3.63521370e-02	1.81760685e-02	1.81760685e-02	-4.03321049e-01	-1.50808763e-01	-2.52512287e-01	5.08517619e-02	-1.49336343e-19	-1.33839135e-20	0.00000000e+00	-1.33839135e-20	1.33839135e-20
2.18            	3.63499008e-02	1.81749504e-02	1.81749504e-02	-4.03317882e-01	-1.50805207e-01	-2.52512675e-01	5.08537343e-02	-1.49339650e-19	-1.33818554e-20	0.00000000e+00	-1.33818554e-20	1.33818554e-20
2.2             	3.63472228e-02	1.81736114e-02	1.81736114e-02	-4.03296919e-01	-1.50792190e-01	-2.52504729e-01	5.08562695e-02	-1.49320609e-19	-1.33856400e-20	0.00000000e+00	-1.33856400e-20	1.33856400e-20
2.22            	3.63483071e-02	1.81741536e-02	1.81741536e-02	-4.03290365e-01	-1.50791058e-01	-2.52499307e-01	5.08541248e-02	-1.49328338e-19	-1.33871946e-20	0.00000000e+00	-1.33871946e-20	1.33871946e-20
2.24            	3.63487964e-02	1.81743982e-02	1.81743982e-02	-4.03307114e-01	-1.50798935e-01	-2.52508178e-01	5.08546215e-02	-1.49343631e-19	-1.33836536e-20	0.00000000e+00	-1.33836536e-20	1.33836536e-20
2.26            	3.63492207e-02	1.81746103e-02	1.81746103e-02	-4.03311503e-01	-1.50800749e-01	-2.52510754e-01	5.08550026e-02	-1.49342352e-19	-1.33836254e-20	0.00000000e+00	-1.33836254e-20	1.33836254e-20
2.28            	3.63515970e-02	1.81757985e-02	1.81757985e-02	-4.03318583e-01	-1.50806191e-01	-2.52512391e-01	5.08531002e-02	-1.49320612e-19	-1.33870023e-20	0.00000000e+00	-1.33870023e-20	1.33870023e-20
2.3             	3.63527632e-02	1.81763816e-02	1.81763816e-02	-4.03312012e-01	-1.50806822e-01	-2.52505190e-01	5.08491842e-02	-1.49323917e-19	-1.33852381e-20	0.00000000e+00	-1.33852381e-20	1.33852381e-20
2.32            	3.63478093e-02	1.81739047e-02	1.81739047e-02	-4.03302875e-01	-1.50796201e-01	-2.52506674e-01	5.08552367e-02	-1.49338260e-19	-1.33818279e-20	0.00000000e+00	-1.33818279e-20	1.33818279e-20
2.34            	3.63470405e-02	1.81735202e-02	1.81735202e-02	-4.03292188e-01	-1.50791284e-01	-2.52500904e-01	5.08548098e-02	-1.49335902e-19	-1.33849224e-20	0.00000000e+00	-1.33849224e-20	1.33849224e-20
2.36            	3.63487831e-02	1.81743916e-02	1.81743916e-02	-4.03300999e-01	-1.50796155e-01	-2.52504844e-01	5.08543443e-02	-1.49325007e-19	-1.33873761e-20	0.00000000e+00	-1.33873761e-20	1.33873761e-20
2.38            	3.63497299e-02	1.81748650e-02	1.81748650e-02	-4.03305711e-01	-1.50798955e-01	-2.52506757e-01	5.08539011e-02	-1.49335074e-19	-1.33849634e-20	0.00000000e+00	-1.33849634e-20	1.33849634e-20
2.4             	3.63497522e-02	1.81748761e-02	1.81748761e-02	-4.03320922e-01	-1.50804325e-01	-2.52516597e-01	5.08561361e-02	-1.49345899e-19	-1.33828401e-20	0.00000000e+00	-1.33828401e-20	1.33828401e-20
2.42            	3.63519540e-02	1.81759770e-02	1.81759770e-02	-4.03322290e-01	-1.50809048e-01	-2.52513242e-01	5.08520968e-02	-1.49326152e-19	-1.33854157e-20	0.00000000e+00	-1.33854157e-20	1.33854157e-20
2.44            	3.63502339e-02	1.81751170e-02	1.81751170e-02	-4.03302951e-01	-1.50798441e-01	-2.52504510e-01	5.08530349e-02	-1.49316541e-19	-1.33855627e-20	0.00000000e+00	-1.33855627e-20	1.33855627e-20
2.46            	3.63462586e-02	1.81731293e-02	1.81731293e-02	-4.03295974e-01	-1.50789998e-01	-2.52505975e-01	5.08579886e-02	-1.49338358e-19	-1.33832704e-20	0.00000000e+00	-1.33832704e-20	1.33832704e-20
2.48            	3.63468563e-02	1.81734281e-02	1.81734281e-02	-4.03302766e-01	-1.50794767e-01	-2.52507999e-01	5.08566158e-02	-1.49347873e-19	-1.33837328e-20	0.00000000e+00	-1.33837328e-20	1.33837328e-20
2.5             	3.63487245e-02	1.81743623e-02	1.81743623e-02	-4.03307634e-01	-1.50798366e-01	-2.52509268e-01	5.08554512e-02	-1.49323709e-19	-1.33868503e-20	0.00000000e+00	-1.33868503e-20	1.33868503e-20
2.52            	3.63500897e-02	1.81750449e-02	1.81750449e-02	-4.03308481e-01	-1.50799689e-01	-2.52508792e-01	5.08545517e-02	-1.49326917e-19	-1.33860677e-20	0.00000000e+00	-1.33860677e-20	1.33860677e-20
2.54            	3.63511540e-02	1.81755770e-02	1.81755770e-02	-4.03324225e-01	-1.50808604e-01	-2.52515621e-01	5.08535088e-02	-1.49342704e-19	-1.33826606e-20	0.00000000e+00	-1.33826606e-20	1.33826606e-20
2.56            	3.63497482e-02	1.81748741e-02	1.81748741e-02	-4.03319129e-01	-1.50804781e-01	-2.52514347e-01	5.08547831e-02	-1.49334504e-19	-1.33827156e-20	0.00000000e+00	-1.33827156e-20	1.33827156e-20
2.58            	3.63477508e-02	1.81738754e-02	1.81738754e-02	-4.03293971e-01	-1.50791683e-01	-2.52502288e-01	5.08553023e-02	-1.49315704e-19	-1.33862865e-20	0.00000000e+00	-1.33862865e-20	1.33862865e-20
2.6             	3.63473741e-02	1.81736870e-02	1.81736870e-02	-4.03293159e-01	-1.50790602e-01	-2.52502558e-01	5.08559781e-02	-1.49334458e-19	-1.33858788e-20	0.00000000e+00	-1.33858788e-20	1.33858788e-20
2.62            	3.63480423e-02	1.81740211e-02	1.81740211e-02	-4.03308946e-01	-1.50798923e-01	-2.52510024e-01	5.08555505e-02	-1.49346670e-19	-1.33830056e-20	0.00000000e+00	-1.33830056e-20	1.33830056e-20
2.64            	3.63488480e-02	1.81744240e-02	1.81744240e-02	-4.03310658e-01	-1.50799757e-01	-2.52510901e-01	5.08555720e-02	-1.49333837e-19	-1.33849502e-20	0.00000000e+00	-1.33849502e-20	1.33849502e-20
2.66            	3.63517402e-02	1.81758701e-02	1.81758701e-02	-4.03315788e-01	-1.50805603e-01	-2.52510185e-01	5.08522912e-02	-1.49322172e-19	-1.33867036e-20	0.00000000e+00	-1.33867036e-20	1.33867036e-20
2.68            	3.63519407e-02	1.81759703e-02	1.81759703e-02	-4.03318064e-01	-1.50807574e-01	-2.52510491e-01	5.08514585e-02	-1.49333791e-19	-1.33836178e-20	0.00000000e+00	-1.33836178e-20	1.33836178e-20
2.7             	3.63476824e-02	1.81738412e-02	1.81738412e-02	-4.03306530e-01	-1.50796562e-01	-2.52509968e-01	5.08567027e-02	-1.49338516e-19	-1.33818368e-20	0.00000000e+00	-1.33818368e-20	1.33818368e-20
2.72            	3.63466265e-02	1.81733132e-02	1.81733132e-02	-4.03294383e-01	-1.50790298e-01	-2.52504085e-01	5.08568939e-02	-1.49326770e-19	-1.33863961e-20	0.00000000e+00	-1.33863961e-20	1.33863961e-20
2.74            	3.63489983e-02	1.81744992e-02	1.81744992e-02	-4.03298449e-01	-1.50795267e-01	-2.52503182e-01	5.08539575e-02	-1.49327426e-19	-1.33869833e-20	0.00000000e+00	-1.33869833e-20	1.33869833e-20
2.76            	3.63490804e-02	1.81745402e-02	1.81745402e-02	-4.03308413e-01	-1.50799781e-01	-2.52508632e-01	5.08544253e-02	-1.49343361e-19	-1.33834500e-20	0.00000000e+00	-1.33834500e-20	1.33834500e-20
2.78            	3.63504978e-02	1.81752489e-02	1.81752489e-02	-4.03313791e-01	-1.50804563e-01	-2.52509228e-01	5.08523323e-02	-1.49340951e-19	-1.33835998e-20	0.00000000e+00	-1.33835998e-20	1.33835998e-20
2.8             	3.63525953e-02	1.81762977e-02	1.81762977e-02	-4.03317548e-01	-1.50808593e-01	-2.52508955e-01	5.08501809e-02	-1.49317706e-19	-1.33868591e-20	0.00000000e+00	-1.33868591e-20	1.33868591e-20
2.82            	3.63506338e-02	1.81753169e-02	1.81753169e-02	-4.03303279e-01	-1.50799313e-01	-2.52503966e-01	5.08523265e-02	-1.49320943e-19	-1.33848805e-20	0.00000000e+00	-1.33848805e-20	1.33848805e-20
2.84            	3.63465885e-02	1.81732943e-02	1.81732943e-02	-4.03295987e-01	-1.50790522e-01	-2.52505466e-01	5.08574720e-02	-1.49341825e-19	-1.33826339e-20	0.00000000e+00	-1.33826339e-20	1.33826339e-20
2.86            	3.63478979e-02	1.81739489e-02	1.81739489e-02	-4.03296735e-01	-1.50793436e-01	-2.52503299e-01	5.08549313e-02	-1.49337018e-19	-1.33857111e-20	0.00000000e+00	-1.33857111e-20	1.33857111e-20