# Field minima and maxima
# Time          	field           	min             	location(min)   	processor       	max             	location(max)   	processor       
0.02            	p               	3.08973287e-01	(5.17578326e-01 8.68060540e-02 1.37712116e-20)	12	1.87960453e+00	(1.36716878e-02 4.28192099e-03 1.12356040e-19)	13
0.04            	p               	3.21702558e-01	(5.17578326e-01 8.68060540e-02 1.37712116e-20)	12	1.94590726e+00	(1.36716878e-02 4.28192099e-03 1.12356040e-19)	13
0.06            	p               	3.12396899e-01	(5.17578326e-01 8.68060540e-02 1.37712116e-20)	12	1.94255768e+00	(1.36716878e-02 4.28192099e-03 1.12356040e-19)	13
0.08            	p               	3.12127583e-01	(5.17578326e-01 8.68060540e-02 1.37712116e-20)	12	1.94250812e+00	(1.36716878e-02 4.28192099e-03 1.12356040e-19)	13
0.1             	p               	3.23708942e-01	(5.17578326e-01 8.68060540e-02 1.37712116e-20)	12	1.94352555e+00	(1.36716878e-02 4.28192099e-03 1.12356040e-19)	13
0.12            	p               	3.14762437e-01	(5.17578326e-01 8.68060540e-02 1.37712116e-20)	12	1.94395648e+00	(1.36716878e-02 4.28192099e-03 1.12356040e-19)	13
0.14            	p               	3.10060219e-01	(5.17578326e-01 8.68060540e-02 1.37712116e-20)	12	1.94716630e+00	(1.36716878e-02 4.28192099e-03 1.12356040e-19)	13
0.16            	p               	3.22241527e-01	(5.17578326e-01 8.68060540e-02 1.37712116e-20)	12	1.94782680e+00	(1.36716878e-02 4.28192099e-03 1.12356040e-19)	13
0.18            	p               	3.16669673e-01	(5.17578326e-01 8.68060540e-02 1.37712116e-20)	12	1.94670356e+00	(1.36716878e-02 4.28192099e-03 1.12356040e-19)	13
0.2             	p               	3.02707847e-01	(5.17578326e-01 8.68060540e-02 1.37712116e-20)	12	1.94201606e+00	(1.36716878e-02 4.28192099e-03 1.12356040e-19)	13
0.22            	p               	3.02703017e-01	(5.17578326e-01 8.68060540e-02 1.37712116e-20)	12	1.94303862e+00	(1.36716878e-02 4.28192099e-03 1.12356040e-19)	13
0.24            	p               	3.13760563e-01	(5.17578326e-01 8.68060540e-02 1.37712116e-20)	12	1.94335344e+00	(1.36716878e-02 4.28192099e-03 1.12356040e-19)	13
0.26            	p               	3.15783924e-01	(5.17578326e-01 8.68060540e-02 1.37712116e-20)	12	1.94620616e+00	(1.36716878e-02 4.28192099e-03 1.12356040e-19)	13
0.28            	p               	3.07086647e-01	(5.17578326e-01 8.68060540e-02 1.37712116e-20)	12	1.94808114e+00	(1.36716878e-02 4.28192099e-03 1.12356040e-19)	13
0.3             	p               	3.10340086e-01	(5.17578326e-01 8.68060540e-02 1.37712116e-20)	12	1.94678263e+00	(1.36716878e-02 4.28192099e-03 1.12356040e-19)	13
0.32            	p               	3.20662587e-01	(5.17578326e-01 8.68060540e-02 1.37712116e-20)	12	1.94269502e+00	(1.36716878e-02 4.28192099e-03 1.12356040e-19)	13
0.34            	p               	3.29257136e-01	(5.17578326e-01 8.68060540e-02 1.37712116e-20)	12	1.94284431e+00	(1.36716878e-02 4.28192099e-03 1.12356040e-19)	13
0.36            	p               	3.29698993e-01	(5.17578326e-01 8.68060540e-02 1.37712116e-20)	12	1.94310292e+00	(1.36716878e-02 4.28192099e-03 1.12356040e-19)	13
0.38            	p               	3.27061550e-01	(5.17578326e-01 8.68060540e-02 1.37712116e-20)	12	1.94493530e+00	(1.36716878e-02 4.28192099e-03 1.12356040e-19)	13
0.4             	p               	3.24487127e-01	(5.17578326e-01 8.68060540e-02 1.37712116e-20)	12	1.94793245e+00	(1.36716878e-02 4.28192099e-03 1.12356040e-19)	13
0.42            	p               	3.24613739e-01	(5.17578326e-01 8.68060540e-02 1.37712116e-20)	12	1.94764190e+00	(1.36716878e-02 4.28192099e-03 1.12356040e-19)	13
0.44            	p               	3.27980854e-01	(5.17578326e-01 8.68060540e-02 1.37712116e-20)	12	1.94400680e+00	(1.36716878e-02 4.28192099e-03 1.12356040e-19)	13
0.46            	p               	3.37288018e-01	(5.17578326e-01 8.68060540e-02 1.37712116e-20)	12	1.94221879e+00	(1.36716878e-02 4.28192099e-03 1.12356040e-19)	13
0.48            	p               	3.49021273e-01	(5.17578326e-01 8.68060540e-02 1.37712116e-20)	12	1.94314734e+00	(1.36716878e-02 4.28192099e-03 1.12356040e-19)	13
0.5             	p               	3.51512605e-01	(5.17578326e-01 8.68060540e-02 1.37712116e-20)	12	1.94390467e+00	(1.36716878e-02 4.28192099e-03 1.12356040e-19)	13
0.52            	p               	3.50555715e-01	(5.17578326e-01 8.68060540e-02 1.37712116e-20)	12	1.94714204e+00	(1.36716878e-02 4.28192099e-03 1.12356040e-19)	13
0.54            	p               	3.56139596e-01	(5.13672076e-01 8.74937552e-02 3.67731421e-18)	12	1.94805659e+00	(1.36716878e-02 4.28192099e-03 1.12356040e-19)	13
0.56            	p               	3.63512107e-01	(5.17578326e-01 8.68060540e-02 1.37712116e-20)	12	1.94573172e+00	(1.36716878e-02 4.28192099e-03 1.12356040e-19)	13
0.58            	p               	3.60145164e-01	(5.17578326e-01 8.68060540e-02 1.37712116e-20)	12	1.94204846e+00	(1.36716878e-02 4.28192099e-03 1.12356040e-19)	13
0.6             	p               	3.57998609e-01	(5.17578326e-01 8.68060540e-02 1.37712116e-20)	12	1.94307618e+00	(1.36716878e-02 4.28192099e-03 1.12356040e-19)	13
0.62            	p               	3.61732040e-01	(5.17578326e-01 8.68060540e-02 1.37712116e-20)	12	1.94329713e+00	(1.36716878e-02 4.28192099e-03 1.12356040e-19)	13
0.64            	p               	3.69628208e-01	(5.13672076e-01 8.74937552e-02 3.67731421e-18)	12	1.94598740e+00	(1.36716878e-02 4.28192099e-03 1.12356040e-19)	13
0.66            	p               	3.79181053e-01	(5.17578326e-01 8.68060540e-02 1.37712116e-20)	12	1.94817559e+00	(1.36716878e-02 4.28192099e-03 1.12356040e-19)	13
0.68            	p               	3.75300383e-01	(5.17578326e-01 8.68060540e-02 1.37712116e-20)	12	1.94698858e+00	(1.36716878e-02 4.28192099e-03 1.12356040e-19)	13
0.7             	p               	3.77836010e-01	(5.17578326e-01 8.68060540e-02 1.37712116e-20)	12	1.94273893e+00	(1.36716878e-02 4.28192099e-03 1.12356040e-19)	13
0.72            	p               	3.83249359e-01	(5.13672076e-01 8.74937552e-02 3.67731421e-18)	12	1.94269630e+00	(1.36716878e-02 4.28192099e-03 1.12356040e-19)	13
0.74            	p               	3.97255876e-01	(5.17578326e-01 8.68060540e-02 1.37712116e-20)	12	1.94311365e+00	(1.36716878e-02 4.28192099e-03 1.12356040e-19)	13
0.76            	p               	3.91227212e-01	(5.17578326e-01 8.68060540e-02 1.37712116e-20)	12	1.94477345e+00	(1.36716878e-02 4.28192099e-03 1.12356040e-19)	13
0.78            	p               	3.88292141e-01	(5.17578326e-01 8.68060540e-02 1.37712116e-20)	12	1.94785940e+00	(1.36716878e-02 4.28192099e-03 1.12356040e-19)	13
0.8             	p               	3.87623552e-01	(5.13672076e-01 8.74937552e-02 3.67731421e-18)	12	1.94770521e+00	(1.36716878e-02 4.28192099e-03 1.12356040e-19)	13
0.82            	p               	3.99044094e-01	(5.17578326e-01 8.68060540e-02 1.37712116e-20)	12	1.94424353e+00	(1.36716878e-02 4.28192099e-03 1.12356040e-19)	13
0.84            	p               	3.91090451e-01	(5.17578326e-01 8.68060540e-02 1.37712116e-20)	12	1.94217279e+00	(1.36716878e-02 4.28192099e-03 1.12356040e-19)	13
0.86            	p               	3.88483592e-01	(5.17578326e-01 8.68060540e-02 1.37712116e-20)	12	1.94314843e+00	(1.36716878e-02 4.28192099e-03 1.12356040e-19)	13
0.88            	p               	3.89045934e-01	(5.13672076e-01 8.74937552e-02 3.67731421e-18)	12	1.94380299e+00	(1.36716878e-02 4.28192099e-03 1.12356040e-19)	13
0.9             	p               	3.97263095e-01	(5.17578326e-01 8.68060540e-02 1.37712116e-20)	12	1.94701787e+00	(1.36716878e-02 4.28192099e-03 1.12356040e-19)	13
0.92            	p               	3.90002228e-01	(5.17578326e-01 8.68060540e-02 1.37712116e-20)	12	1.94807988e+00	(1.36716878e-02 4.28192099e-03 1.12356040e-19)	13
0.94            	p               	3.89219093e-01	(5.17578326e-01 8.68060540e-02 1.37712116e-20)	12	1.94590211e+00	(1.36716878e-02 4.28192099e-03 1.12356040e-19)	13
0.96            	p               	3.92402354e-01	(5.13672076e-01 8.74937552e-02 3.67731421e-18)	12	1.94208130e+00	(1.36716878e-02 4.28192099e-03 1.12356040e-19)	13
0.98            	p               	3.95185139e-01	(5.17578326e-01 8.68060540e-02 1.37712116e-20)	12	1.94305259e+00	(1.36716878e-02 4.28192099e-03 1.12356040e-19)	13
1               	p               	3.89224748e-01	(5.17578326e-01 8.68060540e-02 1.37712116e-20)	12	1.94325254e+00	(1.36716878e-02 4.28192099e-03 1.12356040e-19)	13
1.02            	p               	3.87835271e-01	(5.13672076e-01 8.74937552e-02 3.67731421e-18)	12	1.94583518e+00	(1.36716878e-02 4.28192099e-03 1.12356040e-19)	13
1.04            	p               	3.97225028e-01	(5.13672076e-01 8.74937552e-02 3.67731421e-18)	12	1.94816043e+00	(1.36716878e-02 4.28192099e-03 1.12356040e-19)	13
1.06            	p               	3.92975645e-01	(5.17578326e-01 8.68060540e-02 1.37712116e-20)	12	1.94710126e+00	(1.36716878e-02 4.28192099e-03 1.12356040e-19)	13
1.08            	p               	3.88630697e-01	(5.17578326e-01 8.68060540e-02 1.37712116e-20)	12	1.94289817e+00	(1.36716878e-02 4.28192099e-03 1.12356040e-19)	13
1.1             	p               	3.87286828e-01	(5.13672076e-01 8.74937552e-02 3.67731421e-18)	12	1.94263216e+00	(1.36716878e-02 4.28192099e-03 1.12356040e-19)	13
1.12            	p               	3.99503564e-01	(5.17578326e-01 8.68060540e-02 1.37712116e-20)	12	1.94311379e+00	(1.36716878e-02 4.28192099e-03 1.12356040e-19)	13
1.14            	p               	3.91205594e-01	(5.17578326e-01 8.68060540e-02 1.37712116e-20)	12	1.94463633e+00	(1.36716878e-02 4.28192099e-03 1.12356040e-19)	13
1.16            	p               	3.88375278e-01	(5.17578326e-01 8.68060540e-02 1.37712116e-20)	12	1.94777857e+00	(1.36716878e-02 4.28192099e-03 1.12356040e-19)	13
1.18            	p               	3.88927228e-01	(5.13672076e-01 8.74937552e-02 3.67731421e-18)	12	1.94777018e+00	(1.36716878e-02 4.28192099e-03 1.12356040e-19)	13
1.2             	p               	3.97330842e-01	(5.17578326e-01 8.68060540e-02 1.37712116e-20)	12	1.94446821e+00	(1.36716878e-02 4.28192099e-03 1.12356040e-19)	13
1.22            	p               	3.90359233e-01	(5.17578326e-01 8.68060540e-02 1.37712116e-20)	12	1.94212656e+00	(1.36716878e-02 4.28192099e-03 1.12356040e-19)	13
1.24            	p               	3.89962372e-01	(5.17578326e-01 8.68060540e-02 1.37712116e-20)	12	1.94315275e+00	(1.36716878e-02 4.28192099e-03 1.12356040e-19)	13
1.26            	p               	3.90383290e-01	(5.17578326e-01 8.68060540e-02 1.37712116e-20)	12	1.94371052e+00	(1.36716878e-02 4.28192099e-03 1.12356040e-19)	13
1.28            	p               	3.88767270e-01	(5.17578326e-01 8.68060540e-02 1.37712116e-20)	12	1.94688165e+00	(1.36716878e-02 4.28192099e-03 1.12356040e-19)	13
1.3             	p               	3.88336461e-01	(5.17578326e-01 8.68060540e-02 1.37712116e-20)	12	1.94811557e+00	(1.36716878e-02 4.28192099e-03 1.12356040e-19)	13
1.32            	p               	3.89548511e-01	(5.13672076e-01 8.74937552e-02 3.67731421e-18)	12	1.94608997e+00	(1.36716878e-02 4.28192099e-03 1.12356040e-19)	13
1.34            	p               	3.97315522e-01	(5.17578326e-01 8.68060540e-02 1.37712116e-20)	12	1.94212832e+00	(1.36716878e-02 4.28192099e-03 1.12356040e-19)	13
1.36            	p               	3.89989795e-01	(5.17578326e-01 8.68060540e-02 1.37712116e-20)	12	1.94302092e+00	(1.36716878e-02 4.28192099e-03 1.12356040e-19)	13
1.38            	p               	3.89168567e-01	(5.17578326e-01 8.68060540e-02 1.37712116e-20)	12	1.94321445e+00	(1.36716878e-02 4.28192099e-03 1.12356040e-19)	13
1.4             	p               	3.92336589e-01	(5.13672076e-01 8.74937552e-02 3.67731421e-18)	12	1.94567985e+00	(1.36716878e-02 4.28192099e-03 1.12356040e-19)	13
1.42            	p               	3.95081515e-01	(5.17578326e-01 8.68060540e-02 1.37712116e-20)	12	1.94814841e+00	(1.36716878e-02 4.28192099e-03 1.12356040e-19)	13
1.44            	p               	3.89165871e-01	(5.17578326e-01 8.68060540e-02 1.37712116e-20)	12	1.94720972e+00	(1.36716878e-02 4.28192099e-03 1.12356040e-19)	13
1.46            	p               	3.87831237e-01	(5.13672076e-01 8.74937552e-02 3.67731421e-18)	12	1.94306021e+00	(1.36716878e-02 4.28192099e-03 1.12356040e-19)	13
1.48            	p               	3.97417945e-01	(5.13672076e-01 8.74937552e-02 3.67731421e-18)	12	1.94256659e+00	(1.36716878e-02 4.28192099e-03 1.12356040e-19)	13
1.5             	p               	3.92964989e-01	(5.17578326e-01 8.68060540e-02 1.37712116e-20)	12	1.94311263e+00	(1.36716878e-02 4.28192099e-03 1.12356040e-19)	13
1.52            	p               	3.88543862e-01	(5.17578326e-01 8.68060540e-02 1.37712116e-20)	12	1.94450211e+00	(1.36716878e-02 4.28192099e-03 1.12356040e-19)	13
1.54            	p               	3.87228655e-01	(5.13672076e-01 8.74937552e-02 3.67731421e-18)	12	1.94769714e+00	(1.36716878e-02 4.28192099e-03 1.12356040e-19)	13
1.56            	p               	3.99345256e-01	(5.17578326e-01 8.68060540e-02 1.37712116e-20)	12	1.94782249e+00	(1.36716878e-02 4.28192099e-03 1.12356040e-19)	13
1.58            	p               	3.91137299e-01	(5.17578326e-01 8.68060540e-02 1.37712116e-20)	12	1.94467915e+00	(1.36716878e-02 4.28192099e-03 1.12356040e-19)	13
1.6             	p               	3.88466043e-01	(5.17578326e-01 8.68060540e-02 1.37712116e-20)	12	1.94208727e+00	(1.36716878e-02 4.28192099e-03 1.12356040e-19)	13
1.62            	p               	3.89261313e-01	(5.13672076e-01 8.74937552e-02 3.67731421e-18)	12	1.94314624e+00	(1.36716878e-02 4.28192099e-03 1.12356040e-19)	13
1.64            	p               	3.96970334e-01	(5.17578326e-01 8.68060540e-02 1.37712116e-20)	12	1.94362520e+00	(1.36716878e-02 4.28192099e-03 1.12356040e-19)	13
1.66            	p               	3.89790266e-01	(5.17578326e-01 8.68060540e-02 1.37712116e-20)	12	1.94674365e+00	(1.36716878e-02 4.28192099e-03 1.12356040e-19)	13
1.68            	p               	3.89545251e-01	(5.13672076e-01 8.74937552e-02 3.67731421e-18)	12	1.94813315e+00	(1.36716878e-02 4.28192099e-03 1.12356040e-19)	13
1.7             	p               	3.93729292e-01	(5.13672076e-01 8.74937552e-02 3.67731421e-18)	12	1.94626026e+00	(1.36716878e-02 4.28192099e-03 1.12356040e-19)	13
1.72            	p               	3.94420639e-01	(5.17578326e-01 8.68060540e-02 1.37712116e-20)	12	1.94218939e+00	(1.36716878e-02 4.28192099e-03 1.12356040e-19)	13
1.74            	p               	3.89008185e-01	(5.17578326e-01 8.68060540e-02 1.37712116e-20)	12	1.94297296e+00	(1.36716878e-02 4.28192099e-03 1.12356040e-19)	13
1.76            	p               	3.87370475e-01	(5.13672076e-01 8.74937552e-02 3.67731421e-18)	12	1.94318576e+00	(1.36716878e-02 4.28192099e-03 1.12356040e-19)	13
1.78            	p               	3.99498750e-01	(5.13672076e-01 8.74937552e-02 3.67731421e-18)	12	1.94552480e+00	(1.36716878e-02 4.28192099e-03 1.12356040e-19)	13
1.8             	p               	3.92131218e-01	(5.17578326e-01 8.68060540e-02 1.37712116e-20)	12	1.94811693e+00	(1.36716878e-02 4.28192099e-03 1.12356040e-19)	13
1.82            	p               	3.88420743e-01	(5.17578326e-01 8.68060540e-02 1.37712116e-20)	12	1.94731024e+00	(1.36716878e-02 4.28192099e-03 1.12356040e-19)	13
1.84            	p               	3.87710360e-01	(5.13672076e-01 8.74937552e-02 3.67731421e-18)	12	1.94323225e+00	(1.36716878e-02 4.28192099e-03 1.12356040e-19)	13
1.86            	p               	3.98548983e-01	(5.17578326e-01 8.68060540e-02 1.37712116e-20)	12	1.94249022e+00	(1.36716878e-02 4.28192099e-03 1.12356040e-19)	13
1.88            	p               	3.90581367e-01	(5.17578326e-01 8.68060540e-02 1.37712116e-20)	12	1.94312089e+00	(1.36716878e-02 4.28192099e-03 1.12356040e-19)	13
1.9             	p               	3.88661339e-01	(5.17578326e-01 8.68060540e-02 1.37712116e-20)	12	1.94437081e+00	(1.36716878e-02 4.28192099e-03 1.12356040e-19)	13
1.92            	p               	3.90807489e-01	(5.13672076e-01 8.74937552e-02 3.67731421e-18)	12	1.94760158e+00	(1.36716878e-02 4.28192099e-03 1.12356040e-19)	13
1.94            	p               	3.95836160e-01	(5.17578326e-01 8.68060540e-02 1.37712116e-20)	12	1.94787786e+00	(1.36716878e-02 4.28192099e-03 1.12356040e-19)	13
1.96            	p               	3.89424187e-01	(5.17578326e-01 8.68060540e-02 1.37712116e-20)	12	1.94488733e+00	(1.36716878e-02 4.28192099e-03 1.12356040e-19)	13
1.98            	p               	3.88358884e-01	(5.13672076e-01 8.74937552e-02 3.67731421e-18)	12	1.94205312e+00	(1.36716878e-02 4.28192099e-03 1.12356040e-19)	13
2               	p               	3.96119194e-01	(5.13672076e-01 8.74937552e-02 3.67731421e-18)	12	1.94314882e+00	(1.36716878e-02 4.28192099e-03 1.12356040e-19)	13
2.02            	p               	3.93366887e-01	(5.17578326e-01 8.68060540e-02 1.37712116e-20)	12	1.94354400e+00	(1.36716878e-02 4.28192099e-03 1.12356040e-19)	13
2.04            	p               	3.88628785e-01	(5.17578326e-01 8.68060540e-02 1.37712116e-20)	12	1.94660096e+00	(1.36716878e-02 4.28192099e-03 1.12356040e-19)	13
2.06            	p               	3.87142954e-01	(5.13672076e-01 8.74937552e-02 3.67731421e-18)	12	1.94815496e+00	(1.36716878e-02 4.28192099e-03 1.12356040e-19)	13
2.08            	p               	3.99704762e-01	(5.17578326e-01 8.68060540e-02 1.37712116e-20)	12	1.94641892e+00	(1.36716878e-02 4.28192099e-03 1.12356040e-19)	13
2.1             	p               	3.91423115e-01	(5.17578326e-01 8.68060540e-02 1.37712116e-20)	12	1.94227170e+00	(1.36716878e-02 4.28192099e-03 1.12356040e-19)	13
2.12            	p               	3.88434841e-01	(5.17578326e-01 8.68060540e-02 1.37712116e-20)	12	1.94293642e+00	(1.36716878e-02 4.28192099e-03 1.12356040e-19)	13
2.14            	p               	3.88728982e-01	(5.13672076e-01 8.74937552e-02 3.67731421e-18)	12	1.94315908e+00	(1.36716878e-02 4.28192099e-03 1.12356040e-19)	13
2.16            	p               	3.97334604e-01	(5.17578326e-01 8.68060540e-02 1.37712116e-20)	12	1.94537366e+00	(1.36716878e-02 4.28192099e-03 1.12356040e-19)	13
2.18            	p               	3.89940089e-01	(5.17578326e-01 8.68060540e-02 1.37712116e-20)	12	1.94808343e+00	(1.36716878e-02 4.28192099e-03 1.12356040e-19)	13
2.2             	p               	3.89326105e-01	(5.17578326e-01 8.68060540e-02 1.37712116e-20)	12	1.94740016e+00	(1.36716878e-02 4.28192099e-03 1.12356040e-19)	13
2.22            	p               	3.92980957e-01	(5.13672076e-01 8.74937552e-02 3.67731421e-18)	12	1.94342898e+00	(1.36716878e-02 4.28192099e-03 1.12356040e-19)	13
2.24            	p               	3.94777728e-01	(5.17578326e-01 8.68060540e-02 1.37712116e-20)	12	1.94242991e+00	(1.36716878e-02 4.28192099e-03 1.12356040e-19)	13
2.26            	p               	3.89073993e-01	(5.17578326e-01 8.68060540e-02 1.37712116e-20)	12	1.94312411e+00	(1.36716878e-02 4.28192099e-03 1.12356040e-19)	13
2.28            	p               	3.87452215e-01	(5.13672076e-01 8.74937552e-02 3.67731421e-18)	12	1.94424858e+00	(1.36716878e-02 4.28192099e-03 1.12356040e-19)	13
2.3             	p               	3.98650225e-01	(5.13672076e-01 8.74937552e-02 3.67731421e-18)	12	1.94749944e+00	(1.36716878e-02 4.28192099e-03 1.12356040e-19)	13
2.32            	p               	3.92354361e-01	(5.17578326e-01 8.68060540e-02 1.37712116e-20)	12	1.94792675e+00	(1.36716878e-02 4.28192099e-03 1.12356040e-19)	13
2.34            	p               	3.88454082e-01	(5.17578326e-01 8.68060540e-02 1.37712116e-20)	12	1.94511009e+00	(1.36716878e-02 4.28192099e-03 1.12356040e-19)	13
2.36            	p               	3.87511156e-01	(5.13672076e-01 8.74937552e-02 3.67731421e-18)	12	1.94203575e+00	(1.36716878e-02 4.28192099e-03 1.12356040e-19)	13
2.38            	p               	3.98843990e-01	(5.17578326e-01 8.68060540e-02 1.37712116e-20)	12	1.94313661e+00	(1.36716878e-02 4.28192099e-03 1.12356040e-19)	13
2.4             	p               	3.90669245e-01	(5.17578326e-01 8.68060540e-02 1.37712116e-20)	12	1.94347336e+00	(1.36716878e-02 4.28192099e-03 1.12356040e-19)	13
2.42            	p               	3.88507984e-01	(5.17578326e-01 8.68060540e-02 1.37712116e-20)	12	1.94645226e+00	(1.36716878e-02 4.28192099e-03 1.12356040e-19)	13
2.44            	p               	3.90273303e-01	(5.13672076e-01 8.74937552e-02 3.67731421e-18)	12	1.94817070e+00	(1.36716878e-02 4.28192099e-03 1.12356040e-19)	13
2.46            	p               	3.96089595e-01	(5.17578326e-01 8.68060540e-02 1.37712116e-20)	12	1.94657990e+00	(1.36716878e-02 4.28192099e-03 1.12356040e-19)	13
2.48            	p               	3.89511759e-01	(5.17578326e-01 8.68060540e-02 1.37712116e-20)	12	1.94236014e+00	(1.36716878e-02 4.28192099e-03 1.12356040e-19)	13
2.5             	p               	3.88629734e-01	(5.13672076e-01 8.74937552e-02 3.67731421e-18)	12	1.94288030e+00	(1.36716878e-02 4.28192099e-03 1.12356040e-19)	13
2.52            	p               	3.95444512e-01	(5.13672076e-01 8.74937552e-02 3.67731421e-18)	12	1.94314073e+00	(1.36716878e-02 4.28192099e-03 1.12356040e-19)	13
2.54            	p               	3.93545134e-01	(5.17578326e-01 8.68060540e-02 1.37712116e-20)	12	1.94522023e+00	(1.36716878e-02 4.28192099e-03 1.12356040e-19)	13
2.56            	p               	3.88622035e-01	(5.17578326e-01 8.68060540e-02 1.37712116e-20)	12	1.94804287e+00	(1.36716878e-02 4.28192099e-03 1.12356040e-19)	13
2.58            	p               	3.87075369e-01	(5.13672076e-01 8.74937552e-02 3.67731421e-18)	12	1.94748574e+00	(1.36716878e-02 4.28192099e-03 1.12356040e-19)	13
2.6             	p               	3.99842298e-01	(5.17578326e-01 8.68060540e-02 1.37712116e-20)	12	1.94361209e+00	(1.36716878e-02 4.28192099e-03 1.12356040e-19)	13
2.62            	p               	3.91589513e-01	(5.17578326e-01 8.68060540e-02 1.37712116e-20)	12	1.94235757e+00	(1.36716878e-02 4.28192099e-03 1.12356040e-19)	13
2.64            	p               	3.88389310e-01	(5.17578326e-01 8.68060540e-02 1.37712116e-20)	12	1.94313032e+00	(1.36716878e-02 4.28192099e-03 1.12356040e-19)	13
2.66            	p               	3.88396053e-01	(5.13672076e-01 8.74937552e-02 3.67731421e-18)	12	1.94412829e+00	(1.36716878e-02 4.28192099e-03 1.12356040e-19)	13
2.68            	p               	3.97554254e-01	(5.17578326e-01 8.68060540e-02 1.37712116e-20)	12	1.94739243e+00	(1.36716878e-02 4.28192099e-03 1.12356040e-19)	13
2.7             	p               	3.90008811e-01	(5.17578326e-01 8.68060540e-02 1.37712116e-20)	12	1.94796751e+00	(1.36716878e-02 4.28192099e-03 1.12356040e-19)	13
2.72            	p               	3.89063410e-01	(5.17578326e-01 8.68060540e-02 1.37712116e-20)	12	1.94530561e+00	(1.36716878e-02 4.28192099e-03 1.12356040e-19)	13
2.74            	p               	3.92406283e-01	(5.13672076e-01 8.74937552e-02 3.67731421e-18)	12	1.94202549e+00	(1.36716878e-02 4.28192099e-03 1.12356040e-19)	13
2.76            	p               	3.95012809e-01	(5.17578326e-01 8.68060540e-02 1.37712116e-20)	12	1.94312261e+00	(1.36716878e-02 4.28192099e-03 1.12356040e-19)	13
2.78            	p               	3.89087236e-01	(5.17578326e-01 8.68060540e-02 1.37712116e-20)	12	1.94340788e+00	(1.36716878e-02 4.28192099e-03 1.12356040e-19)	13
2.8             	p               	3.87579616e-01	(5.13672076e-01 8.74937552e-02 3.67731421e-18)	12	1.94630353e+00	(1.36716878e-02 4.28192099e-03 1.12356040e-19)	13
2.82            	p               	3.98099314e-01	(5.13672076e-01 8.74937552e-02 3.67731421e-18)	12	1.94817372e+00	(1.36716878e-02 4.28192099e-03 1.12356040e-19)	13
2.84            	p               	3.92320396e-01	(5.17578326e-01 8.68060540e-02 1.37712116e-20)	12	1.94671846e+00	(1.36716878e-02 4.28192099e-03 1.12356040e-19)	13
2.86            	p               	3.88332544e-01	(5.17578326e-01 8.68060540e-02 1.37712116e-20)	12	1.94247339e+00	(1.36716878e-02 4.28192099e-03 1.12356040e-19)	13
2.88            	p               	3.87572869e-01	(5.13672076e-01 8.74937552e-02 3.67731421e-18)	12	1.94282321e+00	(1.36716878e-02 4.28192099e-03 1.12356040e-19)	13
2.9             	p               	3.99005819e-01	(5.17578326e-01 8.68060540e-02 1.37712116e-20)	12	1.94312828e+00	(1.36716878e-02 4.28192099e-03 1.12356040e-19)	13
2.92            	p               	3.90685512e-01	(5.17578326e-01 8.68060540e-02 1.37712116e-20)	12	1.94507125e+00	(1.36716878e-02 4.28192099e-03 1.12356040e-19)	13
2.94            	p               	3.88459092e-01	(5.17578326e-01 8.68060540e-02 1.37712116e-20)	12	1.94798706e+00	(1.36716878e-02 4.28192099e-03 1.12356040e-19)	13
2.96            	p               	3.90116540e-01	(5.13672076e-01 8.74937552e-02 3.67731421e-18)	12	1.94756603e+00	(1.36716878e-02 4.28192099e-03 1.12356040e-19)	13
2.98            	p               	3.96173043e-01	(5.17578326e-01 8.68060540e-02 1.37712116e-20)	12	1.94382170e+00	(1.36716878e-02 4.28192099e-03 1.12356040e-19)	13
3               	p               	3.89503171e-01	(5.17578326e-01 8.68060540e-02 1.37712116e-20)	12	1.94229173e+00	(1.36716878e-02 4.28192099e-03 1.12356040e-19)	13
3.02            	p               	3.88642259e-01	(5.13672076e-01 8.74937552e-02 3.67731421e-18)	12	1.94314008e+00	(1.36716878e-02 4.28192099e-03 1.12356040e-19)	13
3.04            	p               	3.95363510e-01	(5.13672076e-01 8.74937552e-02 3.67731421e-18)	12	1.94401485e+00	(1.36716878e-02 4.28192099e-03 1.12356040e-19)	13
3.06            	p               	3.93573307e-01	(5.17578326e-01 8.68060540e-02 1.37712116e-20)	12	1.94727344e+00	(1.36716878e-02 4.28192099e-03 1.12356040e-19)	13
3.08            	p               	3.88654876e-01	(5.17578326e-01 8.68060540e-02 1.37712116e-20)	12	1.94801505e+00	(1.36716878e-02 4.28192099e-03 1.12356040e-19)	13
3.1             	p               	3.87117005e-01	(5.13672076e-01 8.74937552e-02 3.67731421e-18)	12	1.94551387e+00	(1.36716878e-02 4.28192099e-03 1.12356040e-19)	13
3.12            	p               	3.99868733e-01	(5.17578326e-01 8.68060540e-02 1.37712116e-20)	12	1.94202957e+00	(1.36716878e-02 4.28192099e-03 1.12356040e-19)	13
3.14            	p               	3.91568538e-01	(5.17578326e-01 8.68060540e-02 1.37712116e-20)	12	1.94310959e+00	(1.36716878e-02 4.28192099e-03 1.12356040e-19)	13
3.16            	p               	3.88336819e-01	(5.17578326e-01 8.68060540e-02 1.37712116e-20)	12	1.94334850e+00	(1.36716878e-02 4.28192099e-03 1.12356040e-19)	13
3.18            	p               	3.88370481e-01	(5.13672076e-01 8.74937552e-02 3.67731421e-18)	12	1.94615009e+00	(1.36716878e-02 4.28192099e-03 1.12356040e-19)	13
3.2             	p               	3.97534485e-01	(5.17578326e-01 8.68060540e-02 1.37712116e-20)	12	1.94818275e+00	(1.36716878e-02 4.28192099e-03 1.12356040e-19)	13
3.22            	p               	3.90041346e-01	(5.17578326e-01 8.68060540e-02 1.37712116e-20)	12	1.94685483e+00	(1.36716878e-02 4.28192099e-03 1.12356040e-19)	13
3.24            	p               	3.89117589e-01	(5.17578326e-01 8.68060540e-02 1.37712116e-20)	12	1.94260001e+00	(1.36716878e-02 4.28192099e-03 1.12356040e-19)	13
3.26            	p               	3.92484264e-01	(5.13672076e-01 8.74937552e-02 3.67731421e-18)	12	1.94276898e+00	(1.36716878e-02 4.28192099e-03 1.12356040e-19)	13
3.28            	p               	3.94928200e-01	(5.17578326e-01 8.68060540e-02 1.37712116e-20)	12	1.94311678e+00	(1.36716878e-02 4.28192099e-03 1.12356040e-19)	13
3.3             	p               	3.89035363e-01	(5.17578326e-01 8.68060540e-02 1.37712116e-20)	12	1.94492491e+00	(1.36716878e-02 4.28192099e-03 1.12356040e-19)	13
3.32            	p               	3.87558393e-01	(5.13672076e-01 8.74937552e-02 3.67731421e-18)	12	1.94793087e+00	(1.36716878e-02 4.28192099e-03 1.12356040e-19)	13
3.34            	p               	3.98180041e-01	(5.13672076e-01 8.74937552e-02 3.67731421e-18)	12	1.94763596e+00	(1.36716878e-02 4.28192099e-03 1.12356040e-19)	13
3.36            	p               	3.92556029e-01	(5.17578326e-01 8.68060540e-02 1.37712116e-20)	12	1.94403418e+00	(1.36716878e-02 4.28192099e-03 1.12356040e-19)	13
3.38            	p               	3.88479768e-01	(5.17578326e-01 8.68060540e-02 1.37712116e-20)	12	1.94223536e+00	(1.36716878e-02 4.28192099e-03 1.12356040e-19)	13
3.4             	p               	3.87372981e-01	(5.13672076e-01 8.74937552e-02 3.67731421e-18)	12	1.94314130e+00	(1.36716878e-02 4.28192099e-03 1.12356040e-19)	13
3.42            	p               	3.98892995e-01	(5.17578326e-01 8.68060540e-02 1.37712116e-20)	12	1.94390911e+00	(1.36716878e-02 4.28192099e-03 1.12356040e-19)	13
3.44            	p               	3.90724680e-01	(5.17578326e-01 8.68060540e-02 1.37712116e-20)	12	1.94715089e+00	(1.36716878e-02 4.28192099e-03 1.12356040e-19)	13
3.46            	p               	3.88483609e-01	(5.17578326e-01 8.68060540e-02 1.37712116e-20)	12	1.94804836e+00	(1.36716878e-02 4.28192099e-03 1.12356040e-19)	13
3.48            	p               	3.89977828e-01	(5.13672076e-01 8.74937552e-02 3.67731421e-18)	12	1.94571492e+00	(1.36716878e-02 4.28192099e-03 1.12356040e-19)	13
3.5             	p               	3.96376511e-01	(5.17578326e-01 8.68060540e-02 1.37712116e-20)	12	1.94204684e+00	(1.36716878e-02 4.28192099e-03 1.12356040e-19)	13
3.52            	p               	3.89579832e-01	(5.17578326e-01 8.68060540e-02 1.37712116e-20)	12	1.94307922e+00	(1.36716878e-02 4.28192099e-03 1.12356040e-19)	13
3.54            	p               	3.88785871e-01	(5.13672076e-01 8.74937552e-02 3.67731421e-18)	12	1.94329914e+00	(1.36716878e-02 4.28192099e-03 1.12356040e-19)	13
3.56            	p               	3.94977574e-01	(5.13672076e-01 8.74937552e-02 3.67731421e-18)	12	1.94599424e+00	(1.36716878e-02 4.28192099e-03 1.12356040e-19)	13
3.58            	p               	3.93717335e-01	(5.17578326e-01 8.68060540e-02 1.37712116e-20)	12	1.94817580e+00	(1.36716878e-02 4.28192099e-03 1.12356040e-19)	13
3.6             	p               	3.88730729e-01	(5.17578326e-01 8.68060540e-02 1.37712116e-20)	12	1.94698352e+00	(1.36716878e-02 4.28192099e-03 1.12356040e-19)	13
3.62            	p               	3.87168336e-01	(5.13672076e-01 8.74937552e-02 3.67731421e-18)	12	1.94273211e+00	(1.36716878e-02 4.28192099e-03 1.12356040e-19)	13