# Field minima and maxima
# Time          	field           	min             	location(min)   	processor       	max             	location(max)   	processor       
0.12            	mag(U)          	2.15317976e-02	(6.00000000e-01 1.25000000e-02 -1.15648232e-19)	1	3.18043545e+00	(8.37500000e-01 2.87500000e-01 4.18939735e-17)	5
0.12            	rho             	2.98558301e-01	(6.87500000e-01 2.12500000e-01 5.59859916e-18)	5	6.77771829e+00	(5.37500000e-01 1.25000000e-02 4.86786698e-19)	1
0.12            	p               	2.67059688e-01	(6.87500000e-01 2.12500000e-01 5.59859916e-18)	5	1.97940252e+01	(5.37500000e-01 1.25000000e-02 4.86786698e-19)	1
0.245           	mag(U)          	3.95881466e-02	(6.00000000e-01 1.25000000e-02 -1.15648232e-19)	1	3.19254049e+00	(1.18750000e+00 4.37500000e-01 -4.89296425e-19)	4
0.245           	rho             	2.59426874e-01	(6.87500000e-01 2.12500000e-01 5.59859916e-18)	5	5.27531551e+00	(4.87500000e-01 2.12500000e-01 -1.16692278e-18)	1
0.245           	p               	2.88595659e-01	(6.62500000e-01 2.12500000e-01 -6.98708067e-20)	5	1.21535824e+01	(5.62500000e-01 1.25000000e-02 2.60911245e-19)	1
0.36625         	mag(U)          	4.16928699e-02	(6.00000000e-01 1.25000000e-02 -1.15648232e-19)	1	3.17001512e+00	(1.63750000e+00 5.62500000e-01 -1.88103054e-17)	13
0.36625         	rho             	2.26180375e-01	(6.62500000e-01 2.12500000e-01 -6.98708067e-20)	5	5.69868835e+00	(4.37500000e-01 1.25000000e-02 5.91693297e-19)	1
0.36625         	p               	2.06146408e-01	(6.62500000e-01 2.12500000e-01 -6.98708067e-20)	5	1.25980863e+01	(5.87500000e-01 1.25000000e-02 3.08596063e-19)	1
0.48588235      	mag(U)          	4.52720792e-02	(6.00000000e-01 1.25000000e-02 -1.15648232e-19)	1	3.19608796e+00	(8.87500000e-01 2.87500000e-01 3.77723990e-18)	5
0.48588235      	rho             	1.46504957e-01	(6.87500000e-01 2.12500000e-01 5.59859916e-18)	5	5.78578452e+00	(4.62500000e-01 1.25000000e-02 -6.42590565e-19)	1
0.48588235      	p               	1.31010673e-01	(6.87500000e-01 2.12500000e-01 5.59859916e-18)	5	1.24503223e+01	(5.87500000e-01 1.25000000e-02 3.08596063e-19)	1
0.60235294      	mag(U)          	4.89261733e-02	(5.87500000e-01 0.00000000e+00 3.18032637e-19)	1	3.16869822e+00	(2.01250000e+00 9.87500000e-01 1.18057570e-19)	15
0.60235294      	rho             	1.43439622e-01	(6.87500000e-01 2.12500000e-01 5.59859916e-18)	5	5.76612403e+00	(4.87500000e-01 1.25000000e-02 3.08596063e-19)	1
0.60235294      	p               	1.39250522e-01	(6.87500000e-01 2.12500000e-01 5.59859916e-18)	5	1.25750530e+01	(5.87500000e-01 1.25000000e-02 3.08596063e-19)	1
0.7225          	mag(U)          	4.76123212e-02	(6.00000000e-01 1.25000000e-02 -1.15648232e-19)	1	3.28108433e+00	(2.48750000e+00 8.87500000e-01 7.29935097e-17)	11
0.7225          	rho             	1.81372024e-01	(7.12500000e-01 2.12500000e-01 5.31299220e-18)	5	5.97139145e+00	(1.26250000e+00 9.87500000e-01 -1.26430020e-18)	6
0.7225          	p               	1.86450208e-01	(7.12500000e-01 2.12500000e-01 5.31299220e-18)	5	1.23464024e+01	(5.87500000e-01 1.25000000e-02 3.08596063e-19)	1
0.8475          	mag(U)          	4.85195554e-02	(6.00000000e-01 1.25000000e-02 -1.15648232e-19)	1	3.28195624e+00	(2.68750000e+00 8.12500000e-01 -3.32672780e-16)	10
0.8475          	rho             	2.00486374e-01	(6.62500000e-01 2.00000000e-01 -3.32488666e-19)	5	6.98868488e+00	(1.13750000e+00 9.87500000e-01 -1.46391387e-17)	6
0.8475          	p               	1.51860122e-01	(6.62500000e-01 2.12500000e-01 -6.98708067e-20)	5	1.22603586e+01	(5.87500000e-01 1.25000000e-02 3.08596063e-19)	1
0.97125         	mag(U)          	4.55592379e-02	(6.00000000e-01 1.25000000e-02 -1.15648232e-19)	1	3.26290762e+00	(2.88750000e+00 8.37500000e-01 7.79336568e-17)	10
0.97125         	rho             	2.36696371e-01	(6.62500000e-01 2.12500000e-01 -6.98708067e-20)	5	7.51594034e+00	(1.06250000e+00 9.87500000e-01 -2.14254412e-17)	6
0.97125         	p               	1.76393870e-01	(6.62500000e-01 2.12500000e-01 -6.98708067e-20)	5	1.23258872e+01	(1.06250000e+00 9.87500000e-01 -2.14254412e-17)	6
1.09625         	mag(U)          	4.56811826e-02	(6.00000000e-01 1.25000000e-02 -1.15648232e-19)	1	3.23460811e+00	(2.98750000e+00 8.87500000e-01 -2.68480582e-18)	10
1.09625         	rho             	1.66428354e-01	(6.87500000e-01 2.12500000e-01 5.59859916e-18)	5	8.00034506e+00	(1.01250000e+00 9.87500000e-01 3.62834280e-17)	6
1.09625         	p               	1.18582292e-01	(6.62500000e-01 2.12500000e-01 -6.98708067e-20)	5	1.36421281e+01	(1.01250000e+00 9.87500000e-01 3.62834280e-17)	6
1.22125         	mag(U)          	4.65395686e-02	(6.00000000e-01 1.25000000e-02 -1.15648232e-19)	1	3.21790289e+00	(2.83750000e+00 8.87500000e-01 -7.55351607e-17)	10
1.22125         	rho             	1.81822883e-01	(6.87500000e-01 2.00000000e-01 -9.83009970e-19)	5	8.38005077e+00	(9.87500000e-01 9.87500000e-01 -3.15868248e-17)	7
1.22125         	p               	1.34083235e-01	(6.62500000e-01 2.12500000e-01 -6.98708067e-20)	5	1.48212912e+01	(9.87500000e-01 9.87500000e-01 -3.15868248e-17)	7
1.3493333       	mag(U)          	4.68383908e-02	(6.00000000e-01 1.25000000e-02 -1.15648232e-19)	1	3.20594049e+00	(2.98750000e+00 8.87500000e-01 -2.68480582e-18)	10
1.3493333       	rho             	1.74216365e-01	(6.87500000e-01 2.12500000e-01 5.59859916e-18)	5	8.88312130e+00	(9.37500000e-01 9.87500000e-01 1.98304593e-17)	7
1.3493333       	p               	1.26369651e-01	(6.87500000e-01 2.12500000e-01 5.59859916e-18)	5	1.59239611e+01	(9.37500000e-01 9.87500000e-01 1.98304593e-17)	7
1.4775          	mag(U)          	4.38246685e-02	(6.00000000e-01 1.25000000e-02 -1.15648232e-19)	1	3.16406403e+00	(2.98750000e+00 8.37500000e-01 -8.87439556e-20)	10
1.4775          	rho             	1.57024635e-01	(6.87500000e-01 2.12500000e-01 5.59859916e-18)	5	9.14184164e+00	(9.12500000e-01 9.87500000e-01 -2.85105016e-20)	7
1.4775          	p               	1.19038068e-01	(6.87500000e-01 2.12500000e-01 5.59859916e-18)	5	1.69234476e+01	(9.12500000e-01 9.87500000e-01 -2.85105016e-20)	7
1.60625         	mag(U)          	4.33092279e-02	(6.00000000e-01 1.25000000e-02 -1.15648232e-19)	1	3.10443542e+00	(2.86250000e+00 8.12500000e-01 1.51600175e-16)	10
1.60625         	rho             	1.56062412e-01	(6.87500000e-01 2.12500000e-01 5.59859916e-18)	5	9.25982539e+00	(8.87500000e-01 9.87500000e-01 1.91458057e-17)	7
1.60625         	p               	1.19386355e-01	(6.87500000e-01 2.12500000e-01 5.59859916e-18)	5	1.75546473e+01	(8.87500000e-01 9.87500000e-01 1.91458057e-17)	7
1.7375          	mag(U)          	4.30110235e-02	(6.00000000e-01 1.25000000e-02 -1.15648232e-19)	1	3.08510546e+00	(2.98750000e+00 9.62500000e-01 1.87342104e-17)	10
1.7375          	rho             	2.07205903e-01	(7.12500000e-01 2.12500000e-01 5.31299220e-18)	5	8.87876322e+00	(8.62500000e-01 9.87500000e-01 2.05984358e-17)	7
1.7375          	p               	1.79014567e-01	(7.12500000e-01 2.12500000e-01 5.31299220e-18)	5	1.66907242e+01	(8.62500000e-01 9.87500000e-01 2.05984358e-17)	7
1.87            	mag(U)          	4.41762611e-02	(6.00000000e-01 1.25000000e-02 -1.15648232e-19)	1	3.06375874e+00	(3.37500000e-01 2.87500000e-01 3.69030295e-19)	1
1.87            	rho             	1.89250576e-01	(6.87500000e-01 2.12500000e-01 5.59859916e-18)	5	8.54036216e+00	(8.62500000e-01 9.87500000e-01 2.05984358e-17)	7
1.87            	p               	1.44589046e-01	(6.87500000e-01 2.12500000e-01 5.59859916e-18)	5	1.64040601e+01	(8.62500000e-01 9.87500000e-01 2.05984358e-17)	7
2.0013333       	mag(U)          	4.47045858e-02	(6.00000000e-01 1.25000000e-02 -1.15648232e-19)	1	3.06350664e+00	(3.87500000e-01 4.37500000e-01 2.16840434e-20)	1
2.0013333       	rho             	2.00131103e-01	(6.87500000e-01 2.12500000e-01 5.59859916e-18)	5	8.14383769e+00	(8.37500000e-01 9.87500000e-01 2.58602296e-19)	7
2.0013333       	p               	1.43209896e-01	(6.87500000e-01 2.12500000e-01 5.59859916e-18)	5	1.57348990e+01	(8.37500000e-01 9.87500000e-01 2.58602296e-19)	7
2.1346667       	mag(U)          	4.54538460e-02	(6.00000000e-01 1.25000000e-02 -1.15648232e-19)	1	3.06729699e+00	(3.37500000e-01 3.12500000e-01 1.93650555e-19)	0
2.1346667       	rho             	2.00335111e-01	(6.87500000e-01 2.12500000e-01 5.59859916e-18)	5	7.44002658e+00	(8.12500000e-01 9.87500000e-01 3.62270094e-17)	7
2.1346667       	p               	1.43296865e-01	(6.62500000e-01 2.12500000e-01 -6.98708067e-20)	5	1.49952110e+01	(8.12500000e-01 9.87500000e-01 3.62270094e-17)	7
2.2653333       	mag(U)          	4.54605502e-02	(6.00000000e-01 1.25000000e-02 -1.15648232e-19)	1	3.07869998e+00	(3.37500000e-01 3.12500000e-01 1.93650555e-19)	0
2.2653333       	rho             	2.15862052e-01	(6.62500000e-01 2.12500000e-01 -6.98708067e-20)	5	7.32836643e+00	(8.12500000e-01 9.62500000e-01 -1.93493948e-17)	7
2.2653333       	p               	1.45835434e-01	(6.62500000e-01 2.12500000e-01 -6.98708067e-20)	5	1.40152758e+01	(8.12500000e-01 9.62500000e-01 -1.93493948e-17)	7
2.3946667       	mag(U)          	4.56860351e-02	(6.00000000e-01 1.25000000e-02 -1.15648232e-19)	1	3.08401513e+00	(3.37500000e-01 3.12500000e-01 1.93650555e-19)	0
2.3946667       	rho             	2.45034470e-01	(6.87500000e-01 2.12500000e-01 5.59859916e-18)	5	7.10404321e+00	(8.12500000e-01 9.37500000e-01 -6.86661376e-20)	7
2.3946667       	p               	1.81113145e-01	(6.62500000e-01 2.12500000e-01 -6.98708067e-20)	5	1.35475872e+01	(7.87500000e-01 9.62500000e-01 -1.82270447e-17)	7
2.524           	mag(U)          	4.55664582e-02	(6.00000000e-01 1.25000000e-02 -1.15648232e-19)	1	3.08577854e+00	(3.37500000e-01 3.12500000e-01 1.93650555e-19)	0
2.524           	rho             	2.24930756e-01	(7.12500000e-01 2.12500000e-01 5.31299220e-18)	5	7.08298318e+00	(7.87500000e-01 9.37500000e-01 -7.46894830e-20)	7
2.524           	p               	1.84643273e-01	(6.87500000e-01 2.12500000e-01 5.59859916e-18)	5	1.30035235e+01	(7.87500000e-01 9.37500000e-01 -7.46894830e-20)	7
2.6546667       	mag(U)          	4.53119289e-02	(6.00000000e-01 1.25000000e-02 -1.15648232e-19)	1	3.08672528e+00	(3.37500000e-01 3.12500000e-01 1.93650555e-19)	0
2.6546667       	rho             	2.23869620e-01	(6.87500000e-01 2.12500000e-01 5.59859916e-18)	5	6.87294945e+00	(7.62500000e-01 9.37500000e-01 -1.23317958e-18)	7
2.6546667       	p               	1.80342792e-01	(6.87500000e-01 2.12500000e-01 5.59859916e-18)	5	1.29643260e+01	(7.62500000e-01 9.37500000e-01 -1.23317958e-18)	7
2.78625         	mag(U)          	4.50974476e-02	(6.00000000e-01 1.25000000e-02 -1.15648232e-19)	1	3.08755895e+00	(3.37500000e-01 3.12500000e-01 1.93650555e-19)	0
2.78625         	rho             	1.70309439e-01	(6.87500000e-01 2.12500000e-01 5.59859916e-18)	5	6.94111876e+00	(7.62500000e-01 9.12500000e-01 -7.77413113e-19)	7
2.78625         	p               	1.14668958e-01	(6.62500000e-01 2.12500000e-01 -6.98708067e-20)	5	1.24819190e+01	(7.62500000e-01 9.37500000e-01 -1.23317958e-18)	7
2.9173333       	mag(U)          	4.50544467e-02	(6.00000000e-01 1.25000000e-02 -1.15648232e-19)	1	3.07275575e+00	(3.37500000e-01 3.12500000e-01 1.93650555e-19)	0
2.9173333       	rho             	1.87612186e-01	(6.62500000e-01 2.12500000e-01 -6.98708067e-20)	5	6.77146412e+00	(7.37500000e-01 9.12500000e-01 1.62228770e-19)	7
2.9173333       	p               	1.23697202e-01	(6.62500000e-01 2.12500000e-01 -6.98708067e-20)	5	1.24751012e+01	(7.37500000e-01 9.12500000e-01 1.62228770e-19)	7
3.048           	mag(U)          	4.50089632e-02	(6.00000000e-01 1.25000000e-02 -1.15648232e-19)	1	3.05984726e+00	(3.62500000e-01 3.87500000e-01 -2.16539267e-19)	0
3.048           	rho             	2.29030021e-01	(6.62500000e-01 2.00000000e-01 -3.32488666e-19)	5	6.75031428e+00	(7.37500000e-01 8.87500000e-01 5.78241159e-20)	7
3.048           	p               	1.50277608e-01	(6.62500000e-01 2.12500000e-01 -6.98708067e-20)	5	1.25636924e+01	(7.37500000e-01 9.12500000e-01 1.62228770e-19)	7
3.17875         	mag(U)          	4.47518148e-02	(6.00000000e-01 1.25000000e-02 -1.15648232e-19)	1	3.06313006e+00	(3.87500000e-01 4.62500000e-01 2.06988249e-17)	1
3.17875         	rho             	1.66443035e-01	(6.87500000e-01 2.12500000e-01 5.59859916e-18)	5	6.74246843e+00	(7.37500000e-01 8.87500000e-01 5.78241159e-20)	7
3.17875         	p               	1.18547729e-01	(6.87500000e-01 2.12500000e-01 5.59859916e-18)	5	1.21857210e+01	(7.37500000e-01 8.87500000e-01 5.78241159e-20)	7
3.3100952       	mag(U)          	4.36637400e-02	(6.00000000e-01 1.25000000e-02 -1.15648232e-19)	1	3.06599007e+00	(3.87500000e-01 4.62500000e-01 2.06988249e-17)	1
3.3100952       	rho             	1.55549518e-01	(6.87500000e-01 2.12500000e-01 5.59859916e-18)	5	6.82365574e+00	(7.12500000e-01 8.87500000e-01 -2.79483227e-19)	7
3.3100952       	p               	1.09593029e-01	(6.87500000e-01 2.12500000e-01 5.59859916e-18)	5	1.28469206e+01	(7.12500000e-01 8.87500000e-01 -2.79483227e-19)	7
3.4426667       	mag(U)          	4.22756221e-02	(6.00000000e-01 1.25000000e-02 -1.15648232e-19)	1	3.06648019e+00	(3.87500000e-01 4.62500000e-01 2.06988249e-17)	1
3.4426667       	rho             	1.88633176e-01	(6.87500000e-01 2.12500000e-01 5.59859916e-18)	5	6.76656975e+00	(7.12500000e-01 8.62500000e-01 -2.15760248e-17)	7
3.4426667       	p               	1.49716577e-01	(6.87500000e-01 2.12500000e-01 5.59859916e-18)	5	1.20588393e+01	(7.12500000e-01 8.62500000e-01 -2.15760248e-17)	7
3.575           	mag(U)          	4.16150863e-02	(6.00000000e-01 1.25000000e-02 -1.15648232e-19)	1	3.06524090e+00	(3.87500000e-01 4.62500000e-01 2.06988249e-17)	1
3.575           	rho             	1.90365359e-01	(6.87500000e-01 2.12500000e-01 5.59859916e-18)	5	6.57221053e+00	(6.87500000e-01 8.62500000e-01 -3.77001189e-18)	7
3.575           	p               	1.52168190e-01	(6.87500000e-01 2.12500000e-01 5.59859916e-18)	5	1.19992733e+01	(5.87500000e-01 1.25000000e-02 3.08596063e-19)	1
3.7066667       	mag(U)          	4.13730179e-02	(6.00000000e-01 1.25000000e-02 -1.15648232e-19)	1	3.06376868e+00	(3.87500000e-01 4.62500000e-01 2.06988249e-17)	1
3.7066667       	rho             	2.09489392e-01	(6.87500000e-01 2.12500000e-01 5.59859916e-18)	5	6.69101330e+00	(6.87500000e-01 8.62500000e-01 -3.77001189e-18)	7
3.7066667       	p               	1.73048618e-01	(6.87500000e-01 2.12500000e-01 5.59859916e-18)	5	1.26556998e+01	(6.87500000e-01 8.62500000e-01 -3.77001189e-18)	7
3.8375          	mag(U)          	4.12403797e-02	(6.00000000e-01 1.25000000e-02 -1.15648232e-19)	1	3.06900774e+00	(3.12500000e-01 2.37500000e-01 3.32348122e-18)	0
3.8375          	rho             	1.74411791e-01	(6.87500000e-01 2.12500000e-01 5.59859916e-18)	5	6.75959891e+00	(6.87500000e-01 8.37500000e-01 1.50298530e-17)	7
3.8375          	p               	1.36339994e-01	(6.87500000e-01 2.12500000e-01 5.59859916e-18)	5	1.21018820e+01	(6.87500000e-01 8.37500000e-01 1.50298530e-17)	7
3.96875         	mag(U)          	4.15366896e-02	(6.00000000e-01 1.25000000e-02 -1.15648232e-19)	1	3.07285630e+00	(3.12500000e-01 2.37500000e-01 3.32348122e-18)	0
3.96875         	rho             	1.74972764e-01	(6.87500000e-01 2.12500000e-01 5.59859916e-18)	5	6.46347319e+00	(6.87500000e-01 8.37500000e-01 1.50298530e-17)	7
3.96875         	p               	1.30519922e-01	(6.87500000e-01 2.12500000e-01 5.59859916e-18)	5	1.19652722e+01	(5.87500000e-01 1.25000000e-02 3.08596063e-19)	1
4.1             	mag(U)          	4.23411263e-02	(6.00000000e-01 1.25000000e-02 -1.15648232e-19)	1	3.07427721e+00	(3.12500000e-01 2.37500000e-01 3.32348122e-18)	0
4.1             	rho             	1.89023108e-01	(6.87500000e-01 2.12500000e-01 5.59859916e-18)	5	6.60568328e+00	(6.62500000e-01 8.37500000e-01 1.95423426e-17)	3
4.1             	p               	1.31134489e-01	(6.87500000e-01 2.12500000e-01 5.59859916e-18)	5	1.23852278e+01	(6.62500000e-01 8.37500000e-01 1.95423426e-17)	3
4.2306667       	mag(U)          	4.31948507e-02	(6.00000000e-01 1.25000000e-02 -1.15648232e-19)	1	3.07473944e+00	(3.12500000e-01 2.37500000e-01 3.32348122e-18)	0
4.2306667       	rho             	2.02990707e-01	(6.87500000e-01 2.12500000e-01 5.59859916e-18)	5	6.69766678e+00	(6.62500000e-01 8.12500000e-01 -2.10540015e-17)	3
4.2306667       	p               	1.45471070e-01	(6.62500000e-01 2.12500000e-01 -6.98708067e-20)	5	1.20843325e+01	(6.62500000e-01 8.37500000e-01 1.95423426e-17)	3
4.3613333       	mag(U)          	4.38383472e-02	(6.00000000e-01 1.25000000e-02 -1.15648232e-19)	1	3.07457936e+00	(3.12500000e-01 2.37500000e-01 3.32348122e-18)	0
4.3613333       	rho             	2.15491549e-01	(6.87500000e-01 2.12500000e-01 5.59859916e-18)	5	6.59172035e+00	(6.62500000e-01 8.12500000e-01 -2.10540015e-17)	3
4.3613333       	p               	1.56786215e-01	(6.87500000e-01 2.12500000e-01 5.59859916e-18)	5	1.19871222e+01	(5.87500000e-01 1.25000000e-02 3.08596063e-19)	1
4.492           	mag(U)          	4.42131628e-02	(6.00000000e-01 1.25000000e-02 -1.15648232e-19)	1	3.07445088e+00	(3.12500000e-01 2.37500000e-01 3.32348122e-18)	0
4.492           	rho             	2.12787167e-01	(6.87500000e-01 2.12500000e-01 5.59859916e-18)	5	6.27821553e+00	(6.37500000e-01 8.12500000e-01 -3.09419253e-18)	3
4.492           	p               	1.61982414e-01	(6.87500000e-01 2.12500000e-01 5.59859916e-18)	5	1.19939980e+01	(5.87500000e-01 1.25000000e-02 3.08596063e-19)	1
4.6226667       	mag(U)          	4.44375487e-02	(6.00000000e-01 1.25000000e-02 -1.15648232e-19)	1	3.07429136e+00	(3.12500000e-01 2.37500000e-01 3.32348122e-18)	0
4.6226667       	rho             	1.80633771e-01	(6.87500000e-01 2.12500000e-01 5.59859916e-18)	5	6.37065894e+00	(6.37500000e-01 8.12500000e-01 -3.09419253e-18)	3
4.6226667       	p               	1.38075113e-01	(6.87500000e-01 2.12500000e-01 5.59859916e-18)	5	1.19982531e+01	(5.87500000e-01 1.25000000e-02 3.08596063e-19)	1
4.75375         	mag(U)          	4.45722947e-02	(6.00000000e-01 1.25000000e-02 -1.15648232e-19)	1	3.07440763e+00	(3.12500000e-01 2.37500000e-01 3.32348122e-18)	0
4.75375         	rho             	1.67191587e-01	(6.87500000e-01 2.12500000e-01 5.59859916e-18)	5	6.64310323e+00	(6.37500000e-01 7.87500000e-01 -1.20466908e-21)	3
4.75375         	p               	1.21857521e-01	(6.87500000e-01 2.12500000e-01 5.59859916e-18)	5	1.19998782e+01	(5.87500000e-01 1.25000000e-02 3.08596063e-19)	1
4.885           	mag(U)          	4.45882596e-02	(6.00000000e-01 1.25000000e-02 -1.15648232e-19)	1	3.07491249e+00	(3.12500000e-01 2.37500000e-01 3.32348122e-18)	0
4.885           	rho             	1.68715661e-01	(6.87500000e-01 2.12500000e-01 5.59859916e-18)	5	6.61991048e+00	(6.37500000e-01 7.87500000e-01 -1.20466908e-21)	3
4.885           	p               	1.17148584e-01	(6.87500000e-01 2.12500000e-01 5.59859916e-18)	5	1.19998333e+01	(5.87500000e-01 1.25000000e-02 3.08596063e-19)	1
5.016           	mag(U)          	4.45210360e-02	(6.00000000e-01 1.25000000e-02 -1.15648232e-19)	1	3.07560253e+00	(3.12500000e-01 2.37500000e-01 3.32348122e-18)	0
5.016           	rho             	1.85992632e-01	(6.87500000e-01 2.12500000e-01 5.59859916e-18)	5	6.24903872e+00	(6.37500000e-01 7.87500000e-01 -1.20466908e-21)	3
5.016           	p               	1.23109893e-01	(6.62500000e-01 2.12500000e-01 -6.98708067e-20)	5	1.19987509e+01	(5.87500000e-01 1.25000000e-02 3.08596063e-19)	1
5.1466667       	mag(U)          	4.44446795e-02	(6.00000000e-01 1.25000000e-02 -1.15648232e-19)	1	3.07611227e+00	(3.12500000e-01 2.37500000e-01 3.32348122e-18)	0
5.1466667       	rho             	2.13550349e-01	(6.62500000e-01 2.00000000e-01 -3.32488666e-19)	5	6.21875101e+00	(6.37500000e-01 7.62500000e-01 4.63526545e-18)	3
5.1466667       	p               	1.39519833e-01	(6.62500000e-01 2.12500000e-01 -6.98708067e-20)	5	1.19969660e+01	(5.87500000e-01 1.25000000e-02 3.08596063e-19)	1
5.2773333       	mag(U)          	4.44132570e-02	(6.00000000e-01 1.25000000e-02 -1.15648232e-19)	1	3.07638925e+00	(3.12500000e-01 2.37500000e-01 3.32348122e-18)	0
5.2773333       	rho             	2.33010975e-01	(6.87500000e-01 2.12500000e-01 5.59859916e-18)	5	6.42405337e+00	(6.12500000e-01 7.62500000e-01 3.98906088e-18)	3
5.2773333       	p               	1.76989501e-01	(6.87500000e-01 2.12500000e-01 5.59859916e-18)	5	1.19958806e+01	(5.87500000e-01 1.25000000e-02 3.08596063e-19)	1
5.4066667       	mag(U)          	4.44190049e-02	(6.00000000e-01 1.25000000e-02 -1.15648232e-19)	1	3.07655261e+00	(3.12500000e-01 2.37500000e-01 3.32348122e-18)	0
5.4066667       	rho             	2.02861710e-01	(6.87500000e-01 2.12500000e-01 5.59859916e-18)	5	6.56369698e+00	(6.12500000e-01 7.62500000e-01 3.98906088e-18)	3
5.4066667       	p               	1.58089589e-01	(6.87500000e-01 2.12500000e-01 5.59859916e-18)	5	1.19965692e+01	(5.87500000e-01 1.25000000e-02 3.08596063e-19)	1
5.5375          	mag(U)          	4.44338009e-02	(6.00000000e-01 1.25000000e-02 -1.15648232e-19)	1	3.07679706e+00	(3.12500000e-01 2.37500000e-01 3.32348122e-18)	0
5.5375          	rho             	1.82979941e-01	(6.87500000e-01 2.12500000e-01 5.59859916e-18)	5	6.50534121e+00	(6.12500000e-01 7.62500000e-01 3.98906088e-18)	3
5.5375          	p               	1.44242773e-01	(6.87500000e-01 2.12500000e-01 5.59859916e-18)	5	1.19961147e+01	(5.87500000e-01 1.25000000e-02 3.08596063e-19)	1
5.67            	mag(U)          	4.44552234e-02	(6.00000000e-01 1.25000000e-02 -1.15648232e-19)	1	3.07698669e+00	(3.12500000e-01 2.37500000e-01 3.32348122e-18)	0
5.67            	rho             	1.86891650e-01	(6.87500000e-01 2.12500000e-01 5.59859916e-18)	5	6.30447616e+00	(6.12500000e-01 7.62500000e-01 3.98906088e-18)	3
5.67            	p               	1.34558139e-01	(6.87500000e-01 2.12500000e-01 5.59859916e-18)	5	1.19957891e+01	(5.87500000e-01 1.25000000e-02 3.08596063e-19)	1
5.80125         	mag(U)          	4.45165228e-02	(6.00000000e-01 1.25000000e-02 -1.15648232e-19)	1	3.07704714e+00	(3.12500000e-01 2.37500000e-01 3.32348122e-18)	0
5.80125         	rho             	1.85570458e-01	(6.87500000e-01 2.12500000e-01 5.59859916e-18)	5	6.24550278e+00	(6.12500000e-01 7.37500000e-01 -3.69873563e-18)	3
5.80125         	p               	1.25823050e-01	(6.62500000e-01 2.12500000e-01 -6.98708067e-20)	5	1.19952593e+01	(5.87500000e-01 1.25000000e-02 3.08596063e-19)	1
5.932           	mag(U)          	4.45051875e-02	(6.00000000e-01 1.25000000e-02 -1.15648232e-19)	1	3.07712476e+00	(3.12500000e-01 2.37500000e-01 3.32348122e-18)	0
5.932           	rho             	2.30696795e-01	(6.87500000e-01 2.12500000e-01 5.59859916e-18)	5	6.24513280e+00	(6.12500000e-01 7.37500000e-01 -3.69873563e-18)	3
5.932           	p               	1.56223184e-01	(6.62500000e-01 2.12500000e-01 -6.98708067e-20)	5	1.19968414e+01	(5.87500000e-01 1.25000000e-02 3.08596063e-19)	1
6.064           	mag(U)          	4.45194927e-02	(6.00000000e-01 1.25000000e-02 -1.15648232e-19)	1	3.07711662e+00	(3.12500000e-01 2.37500000e-01 3.32348122e-18)	0
6.064           	rho             	2.43163090e-01	(6.87500000e-01 2.12500000e-01 5.59859916e-18)	5	6.28756139e+00	(5.87500000e-01 7.37500000e-01 -1.98202196e-17)	3
6.064           	p               	1.67300140e-01	(6.62500000e-01 2.12500000e-01 -6.98708067e-20)	5	1.19959461e+01	(5.87500000e-01 1.25000000e-02 3.08596063e-19)	1
6.1946667       	mag(U)          	4.45270847e-02	(6.00000000e-01 1.25000000e-02 -1.15648232e-19)	1	3.07719473e+00	(3.12500000e-01 2.37500000e-01 3.32348122e-18)	0
6.1946667       	rho             	2.17525162e-01	(7.12500000e-01 2.12500000e-01 5.31299220e-18)	5	6.36598010e+00	(5.87500000e-01 7.37500000e-01 -1.98202196e-17)	3
6.1946667       	p               	1.79939933e-01	(7.12500000e-01 2.12500000e-01 5.31299220e-18)	5	1.19953201e+01	(5.87500000e-01 1.25000000e-02 3.08596063e-19)	1
6.3253333       	mag(U)          	4.45663197e-02	(6.00000000e-01 1.25000000e-02 -1.15648232e-19)	1	3.07710346e+00	(3.12500000e-01 2.37500000e-01 3.32348122e-18)	0
6.3253333       	rho             	1.85030066e-01	(6.87500000e-01 2.12500000e-01 5.59859916e-18)	5	6.39513374e+00	(5.87500000e-01 7.37500000e-01 -1.98202196e-17)	3
6.3253333       	p               	1.41893188e-01	(6.87500000e-01 2.12500000e-01 5.59859916e-18)	5	1.19958401e+01	(5.87500000e-01 1.25000000e-02 3.08596063e-19)	1
6.45625         	mag(U)          	4.45841328e-02	(6.00000000e-01 1.25000000e-02 -1.15648232e-19)	1	3.07720111e+00	(3.12500000e-01 2.37500000e-01 3.32348122e-18)	0
6.45625         	rho             	1.99884791e-01	(6.87500000e-01 2.12500000e-01 5.59859916e-18)	5	6.31251680e+00	(5.87500000e-01 7.37500000e-01 -1.98202196e-17)	3
6.45625         	p               	1.63458920e-01	(6.87500000e-01 2.12500000e-01 5.59859916e-18)	5	1.19953850e+01	(5.87500000e-01 1.25000000e-02 3.08596063e-19)	1
6.5875          	mag(U)          	4.45553372e-02	(6.00000000e-01 1.25000000e-02 -1.15648232e-19)	1	3.07725520e+00	(3.12500000e-01 2.37500000e-01 3.32348122e-18)	0
6.5875          	rho             	1.75042597e-01	(6.87500000e-01 2.12500000e-01 5.59859916e-18)	5	6.28433838e+00	(5.87500000e-01 7.12500000e-01 5.47066331e-17)	3
6.5875          	p               	1.25939824e-01	(6.87500000e-01 2.12500000e-01 5.59859916e-18)	5	1.19967793e+01	(5.87500000e-01 1.25000000e-02 3.08596063e-19)	1
6.7186667       	mag(U)          	4.45290852e-02	(6.00000000e-01 1.25000000e-02 -1.15648232e-19)	1	3.07736817e+00	(3.12500000e-01 2.37500000e-01 3.32348122e-18)	0
6.7186667       	rho             	1.80022196e-01	(6.87500000e-01 2.12500000e-01 5.59859916e-18)	5	6.31024947e+00	(5.87500000e-01 7.12500000e-01 5.47066331e-17)	3
6.7186667       	p               	1.21464830e-01	(6.87500000e-01 2.12500000e-01 5.59859916e-18)	5	1.19952387e+01	(5.87500000e-01 1.25000000e-02 3.08596063e-19)	1
6.8493333       	mag(U)          	4.45297741e-02	(6.00000000e-01 1.25000000e-02 -1.15648232e-19)	1	3.07729026e+00	(3.12500000e-01 2.37500000e-01 3.32348122e-18)	0
6.8493333       	rho             	2.01117924e-01	(6.62500000e-01 2.00000000e-01 -3.32488666e-19)	5	6.27074781e+00	(5.87500000e-01 7.12500000e-01 5.47066331e-17)	3
6.8493333       	p               	1.33993623e-01	(6.62500000e-01 2.12500000e-01 -6.98708067e-20)	5	1.19948915e+01	(5.87500000e-01 1.25000000e-02 3.08596063e-19)	1
6.98            	mag(U)          	4.45393618e-02	(6.00000000e-01 1.25000000e-02 -1.15648232e-19)	1	3.07709957e+00	(3.12500000e-01 2.37500000e-01 3.32348122e-18)	0
6.98            	rho             	2.09978013e-01	(6.87500000e-01 2.12500000e-01 5.59859916e-18)	5	6.15678994e+00	(5.87500000e-01 7.12500000e-01 5.47066331e-17)	3
6.98            	p               	1.47605818e-01	(6.87500000e-01 2.12500000e-01 5.59859916e-18)	5	1.19971089e+01	(5.87500000e-01 1.25000000e-02 3.08596063e-19)	1
7.1093333       	mag(U)          	4.45471900e-02	(6.00000000e-01 1.25000000e-02 -1.15648232e-19)	1	3.07718281e+00	(3.12500000e-01 2.37500000e-01 3.32348122e-18)	0
7.1093333       	rho             	2.14608785e-01	(6.87500000e-01 2.12500000e-01 5.59859916e-18)	5	6.13063740e+00	(5.87500000e-01 7.12500000e-01 5.47066331e-17)	3
7.1093333       	p               	1.67019879e-01	(6.87500000e-01 2.12500000e-01 5.59859916e-18)	5	1.19976078e+01	(5.87500000e-01 1.25000000e-02 3.08596063e-19)	1
7.24            	mag(U)          	4.45292101e-02	(6.00000000e-01 1.25000000e-02 -1.15648232e-19)	1	3.07732152e+00	(3.12500000e-01 2.37500000e-01 3.32348122e-18)	0
7.24            	rho             	1.79695381e-01	(6.87500000e-01 2.12500000e-01 5.59859916e-18)	5	6.06308512e+00	(5.87500000e-01 7.12500000e-01 5.47066331e-17)	3
7.24            	p               	1.33692097e-01	(6.87500000e-01 2.12500000e-01 5.59859916e-18)	5	1.19971449e+01	(5.87500000e-01 1.25000000e-02 3.08596063e-19)	1
7.3725          	mag(U)          	4.45948273e-02	(6.00000000e-01 1.25000000e-02 -1.15648232e-19)	1	3.07735643e+00	(3.12500000e-01 2.37500000e-01 3.32348122e-18)	0
7.3725          	rho             	1.72796744e-01	(6.87500000e-01 2.12500000e-01 5.59859916e-18)	5	6.05416421e+00	(5.62500000e-01 7.12500000e-01 5.72775977e-17)	3
7.3725          	p               	1.21328950e-01	(6.87500000e-01 2.12500000e-01 5.59859916e-18)	5	1.19946015e+01	(5.87500000e-01 1.25000000e-02 3.08596063e-19)	1
7.50375         	mag(U)          	4.45822394e-02	(6.00000000e-01 1.25000000e-02 -1.15648232e-19)	1	3.07732906e+00	(3.12500000e-01 2.37500000e-01 3.32348122e-18)	0
7.50375         	rho             	1.79394542e-01	(6.87500000e-01 2.12500000e-01 5.59859916e-18)	5	6.05221327e+00	(5.62500000e-01 7.12500000e-01 5.72775977e-17)	3
7.50375         	p               	1.27139660e-01	(6.87500000e-01 2.12500000e-01 5.59859916e-18)	5	1.19959522e+01	(5.87500000e-01 1.25000000e-02 3.08596063e-19)	1
7.6346667       	mag(U)          	4.45526241e-02	(6.00000000e-01 1.25000000e-02 -1.15648232e-19)	1	3.07729689e+00	(3.12500000e-01 2.37500000e-01 3.32348122e-18)	0
7.6346667       	rho             	1.97256241e-01	(6.62500000e-01 2.12500000e-01 -6.98708067e-20)	5	6.10529207e+00	(5.62500000e-01 6.87500000e-01 -3.45011201e-17)	3
7.6346667       	p               	1.27412545e-01	(6.62500000e-01 2.12500000e-01 -6.98708067e-20)	5	1.19972516e+01	(5.87500000e-01 1.25000000e-02 3.08596063e-19)	1
7.7653333       	mag(U)          	4.45232406e-02	(6.00000000e-01 1.25000000e-02 -1.15648232e-19)	1	3.07739693e+00	(3.12500000e-01 2.37500000e-01 3.32348122e-18)	0
7.7653333       	rho             	2.26654101e-01	(7.12500000e-01 2.12500000e-01 5.31299220e-18)	5	6.19075363e+00	(5.62500000e-01 6.87500000e-01 -3.45011201e-17)	3
7.7653333       	p               	1.87784014e-01	(7.12500000e-01 2.12500000e-01 5.31299220e-18)	5	1.19951853e+01	(5.87500000e-01 1.25000000e-02 3.08596063e-19)	1
7.8973333       	mag(U)          	4.45765231e-02	(6.00000000e-01 1.25000000e-02 -1.15648232e-19)	1	3.07732586e+00	(3.12500000e-01 2.37500000e-01 3.32348122e-18)	0
7.8973333       	rho             	1.72724354e-01	(6.87500000e-01 2.12500000e-01 5.59859916e-18)	5	6.23610512e+00	(5.62500000e-01 6.87500000e-01 -3.45011201e-17)	3
7.8973333       	p               	1.15996252e-01	(6.87500000e-01 2.12500000e-01 5.59859916e-18)	5	1.19937713e+01	(5.87500000e-01 1.25000000e-02 3.08596063e-19)	1