# Field minima and maxima
# Time          	field           	min             	location(min)   	processor       	max             	location(max)   	processor       
0.02            	mag(U)          	6.01922823e-16	(6.00000000e-01 7.03125000e-02 4.62592927e-19)	7	3.17158126e+00	(6.45312500e-01 2.14062500e-01 4.53357131e-19)	6
0.02            	rho             	4.09184364e-01	(6.10937500e-01 2.01562500e-01 -3.11045557e-18)	6	6.29422233e+00	(5.98437500e-01 1.48437500e-01 -8.83825549e-19)	7
0.02            	p               	4.49708099e-01	(6.10937500e-01 2.01562500e-01 -3.11045557e-18)	6	1.76401953e+01	(5.85937500e-01 1.51562500e-01 -2.58240895e-18)	7
0.04            	mag(U)          	3.22003755e-15	(6.00000000e-01 4.68750000e-03 1.01192203e-19)	7	3.16304489e+00	(7.01562500e-01 2.42187500e-01 -3.83727258e-18)	3
0.04            	rho             	1.27915130e-01	(6.10937500e-01 2.01562500e-01 -3.11045557e-18)	6	6.39677087e+00	(5.70312500e-01 1.17187500e-01 2.07403860e-19)	7
0.04            	p               	1.07239436e-01	(6.10937500e-01 2.01562500e-01 -3.11045557e-18)	6	1.73274261e+01	(5.98437500e-01 1.10937500e-01 -8.06525949e-19)	7
0.06            	mag(U)          	2.14291600e-14	(6.00000000e-01 2.34375000e-02 4.62592927e-19)	7	3.31053919e+00	(6.17187500e-01 2.04687500e-01 3.86096440e-19)	6
0.06            	rho             	8.43856894e-02	(6.14062500e-01 2.01562500e-01 -1.20466908e-21)	6	6.38643358e+00	(5.60937500e-01 7.96875000e-02 -5.55553224e-19)	7
0.06            	p               	7.63471656e-02	(6.10937500e-01 2.01562500e-01 -3.11045557e-18)	6	1.74736582e+01	(5.54687500e-01 8.28125000e-02 3.02773496e-19)	7
0.08            	mag(U)          	1.48920834e-15	(6.00000000e-01 4.68750000e-03 1.01192203e-19)	7	3.54591922e+00	(6.32812500e-01 2.04687500e-01 3.52472118e-17)	6
0.08            	rho             	3.63356028e-02	(6.10937500e-01 2.01562500e-01 -3.11045557e-18)	6	6.40938215e+00	(5.35937500e-01 5.15625000e-02 4.27657524e-20)	7
0.08            	p               	1.58696147e-02	(6.10937500e-01 2.01562500e-01 -3.11045557e-18)	6	1.76835863e+01	(5.35937500e-01 5.15625000e-02 4.27657524e-20)	7
0.1             	mag(U)          	8.56486094e-05	(6.00000000e-01 1.56250000e-03 -1.15648232e-19)	7	3.56842220e+00	(6.32812500e-01 2.04687500e-01 3.52472118e-17)	6
0.1             	rho             	2.85494263e-02	(6.14062500e-01 2.00000000e-01 5.34873072e-19)	6	6.35060062e+00	(5.57812500e-01 1.56250000e-03 -2.76672332e-19)	7
0.1             	p               	2.13050448e-02	(6.14062500e-01 2.01562500e-01 -1.20466908e-21)	6	1.74363532e+01	(5.32812500e-01 4.68750000e-03 -2.64424863e-19)	7
0.12            	mag(U)          	3.16019024e-03	(5.98437500e-01 0.00000000e+00 1.40223481e-18)	7	3.59764334e+00	(6.39062500e-01 2.07812500e-01 3.35962129e-18)	6
0.12            	rho             	1.24197468e-02	(6.14062500e-01 2.01562500e-01 -1.20466908e-21)	6	6.16610375e+00	(5.10937500e-01 1.56250000e-03 -2.76672332e-19)	7
0.12            	p               	4.69492690e-03	(6.14062500e-01 2.01562500e-01 -1.20466908e-21)	6	1.67487642e+01	(5.10937500e-01 1.56250000e-03 -2.76672332e-19)	7
0.14            	mag(U)          	2.90638709e-03	(5.98437500e-01 0.00000000e+00 1.40223481e-18)	7	3.71188241e+00	(6.26562500e-01 2.07812500e-01 -2.55731168e-18)	6
0.14            	rho             	2.19454876e-02	(6.10937500e-01 2.01562500e-01 -3.11045557e-18)	6	6.09760682e+00	(4.89062500e-01 4.84375000e-02 -7.26817012e-20)	7
0.14            	p               	7.01952523e-03	(6.10937500e-01 2.01562500e-01 -3.11045557e-18)	6	1.55934177e+01	(4.85937500e-01 1.40625000e-02 2.43543932e-19)	7
0.16            	mag(U)          	2.86649033e-03	(5.98437500e-01 0.00000000e+00 1.40223481e-18)	7	3.70583666e+00	(6.17187500e-01 2.04687500e-01 3.86096440e-19)	6
0.16            	rho             	2.24056390e-02	(6.17187500e-01 2.01562500e-01 4.45727560e-20)	6	6.02004915e+00	(4.73437500e-01 1.56250000e-03 -1.90839660e-19)	7
0.16            	p               	1.09529595e-02	(6.07812500e-01 2.01562500e-01 7.13208267e-17)	7	1.47503766e+01	(4.76562500e-01 5.46875000e-02 -2.04191409e-19)	7
0.18            	mag(U)          	2.12396284e-03	(5.98437500e-01 0.00000000e+00 1.40223481e-18)	7	3.78247164e+00	(6.42187500e-01 2.07812500e-01 1.46078775e-16)	6
0.18            	rho             	7.19217442e-03	(6.14062500e-01 2.01562500e-01 -1.20466908e-21)	6	5.98298242e+00	(4.64062500e-01 3.28125000e-02 -2.54385954e-19)	7
0.18            	p               	2.61771998e-03	(6.14062500e-01 2.01562500e-01 -1.20466908e-21)	6	1.41940757e+01	(4.64062500e-01 3.28125000e-02 -2.54385954e-19)	7
0.2             	mag(U)          	3.16547756e-03	(5.98437500e-01 0.00000000e+00 1.40223481e-18)	7	3.70799910e+00	(6.35937500e-01 2.07812500e-01 -3.76764271e-17)	6
0.2             	rho             	1.10366173e-02	(6.14062500e-01 2.00000000e-01 5.34873072e-19)	6	5.94323652e+00	(4.54687500e-01 2.96875000e-02 1.55201533e-19)	7
0.2             	p               	3.69154793e-03	(6.10937500e-01 2.01562500e-01 -3.11045557e-18)	6	1.37783893e+01	(4.54687500e-01 3.28125000e-02 -2.04191409e-19)	7
0.22            	mag(U)          	3.55757506e-03	(5.98437500e-01 0.00000000e+00 1.40223481e-18)	7	3.75744464e+00	(6.32812500e-01 2.07812500e-01 -3.45784197e-17)	6
0.22            	rho             	1.43030389e-02	(6.10937500e-01 2.01562500e-01 -3.11045557e-18)	6	5.87604756e+00	(4.51562500e-01 5.78125000e-02 4.33279313e-19)	7
0.22            	p               	3.67450364e-03	(6.10937500e-01 2.01562500e-01 -3.11045557e-18)	6	1.33479226e+01	(4.45312500e-01 1.56250000e-03 -1.90839660e-19)	7
0.24            	mag(U)          	3.86008091e-03	(5.98437500e-01 0.00000000e+00 1.40223481e-18)	7	3.68903004e+00	(6.42187500e-01 2.07812500e-01 1.46078775e-16)	6
0.24            	rho             	1.56190778e-02	(6.17187500e-01 2.00000000e-01 5.34873072e-19)	6	5.87303216e+00	(4.42187500e-01 1.71875000e-02 -5.55553224e-19)	7
0.24            	p               	7.88722177e-03	(6.10937500e-01 2.01562500e-01 -3.11045557e-18)	6	1.31706597e+01	(4.42187500e-01 1.40625000e-02 6.13979675e-19)	7
0.26            	mag(U)          	3.99702938e-03	(5.98437500e-01 0.00000000e+00 1.40223481e-18)	7	3.74965441e+00	(6.45312500e-01 2.07812500e-01 -1.47568348e-16)	6
0.26            	rho             	6.33590943e-03	(6.17187500e-01 2.01562500e-01 4.45727560e-20)	6	5.83630627e+00	(4.35937500e-01 2.96875000e-02 6.49115856e-19)	7
0.26            	p               	2.02595217e-03	(6.14062500e-01 2.01562500e-01 -1.20466908e-21)	6	1.28708131e+01	(4.35937500e-01 2.96875000e-02 6.49115856e-19)	7
0.28            	mag(U)          	4.36947503e-03	(5.98437500e-01 0.00000000e+00 1.40223481e-18)	7	3.71157012e+00	(6.29687500e-01 2.07812500e-01 1.42150952e-19)	6
0.28            	rho             	1.08551360e-02	(6.14062500e-01 2.01562500e-01 -1.20466908e-21)	6	5.81312185e+00	(4.29687500e-01 1.56250000e-03 -3.69030295e-19)	7
0.28            	p               	2.60506423e-03	(6.10937500e-01 2.01562500e-01 -3.11045557e-18)	6	1.27218822e+01	(5.10937500e-01 1.56250000e-03 -2.76672332e-19)	7
0.3             	mag(U)          	4.65683914e-03	(6.00000000e-01 1.56250000e-03 -1.15648232e-19)	7	3.73219984e+00	(6.32812500e-01 2.07812500e-01 -3.45784197e-17)	6
0.3             	rho             	1.72745963e-02	(6.23437500e-01 2.01562500e-01 3.54775044e-19)	6	5.73512128e+00	(4.45312500e-01 2.03125000e-02 4.08944997e-18)	7
0.3             	p               	5.74435591e-03	(6.10937500e-01 2.01562500e-01 -3.11045557e-18)	6	1.26510166e+01	(5.29687500e-01 1.56250000e-03 -3.69030295e-19)	7
0.32            	mag(U)          	4.73395403e-03	(6.00000000e-01 1.56250000e-03 -1.15648232e-19)	7	3.73045055e+00	(6.42187500e-01 2.07812500e-01 1.46078775e-16)	6
0.32            	rho             	7.52149796e-03	(6.17187500e-01 2.01562500e-01 4.45727560e-20)	6	5.74471371e+00	(4.26562500e-01 4.68750000e-03 3.87863288e-18)	7
0.32            	p               	3.15832266e-03	(6.17187500e-01 2.01562500e-01 4.45727560e-20)	6	1.26102009e+01	(5.45312500e-01 1.56250000e-03 1.75018340e-18)	7
0.34            	mag(U)          	2.39861622e-03	(5.98437500e-01 0.00000000e+00 1.40223481e-18)	7	3.68694262e+00	(6.48437500e-01 2.07812500e-01 3.60824491e-17)	6
0.34            	rho             	8.45177029e-03	(6.14062500e-01 2.01562500e-01 -1.20466908e-21)	6	5.72321621e+00	(4.39062500e-01 1.56250000e-03 -2.63621750e-19)	7
0.34            	p               	2.64324874e-03	(6.14062500e-01 2.01562500e-01 -1.20466908e-21)	6	1.25822755e+01	(5.35937500e-01 1.56250000e-03 -3.69030295e-19)	7
0.36            	mag(U)          	4.92972464e-03	(6.00000000e-01 1.56250000e-03 -1.15648232e-19)	7	3.80505978e+00	(6.29687500e-01 2.07812500e-01 1.42150952e-19)	6
0.36            	rho             	1.37018034e-02	(6.10937500e-01 2.01562500e-01 -3.11045557e-18)	6	5.71372359e+00	(4.45312500e-01 1.56250000e-03 -1.90839660e-19)	7
0.36            	p               	3.55879110e-03	(6.10937500e-01 2.01562500e-01 -3.11045557e-18)	6	1.26022807e+01	(5.98437500e-01 1.56250000e-03 -2.71311555e-18)	7
0.38            	mag(U)          	2.29037001e-03	(5.98437500e-01 0.00000000e+00 1.40223481e-18)	7	3.74151889e+00	(6.42187500e-01 2.07812500e-01 1.46078775e-16)	6
0.38            	rho             	1.13601433e-02	(6.17187500e-01 2.01562500e-01 4.45727560e-20)	6	5.71319474e+00	(4.51562500e-01 1.56250000e-03 1.75018340e-18)	7
0.38            	p               	6.14067734e-03	(6.10937500e-01 2.01562500e-01 -3.11045557e-18)	6	1.26397633e+01	(5.85937500e-01 1.56250000e-03 3.09098008e-19)	7
0.4             	mag(U)          	4.94756359e-03	(6.00000000e-01 1.56250000e-03 -1.15648232e-19)	7	3.77645835e+00	(6.45312500e-01 2.07812500e-01 -1.47568348e-16)	6
0.4             	rho             	5.57746681e-03	(6.17187500e-01 2.01562500e-01 4.45727560e-20)	6	5.71546026e+00	(4.54687500e-01 1.56250000e-03 3.68819478e-18)	7
0.4             	p               	2.05263665e-03	(6.17187500e-01 2.01562500e-01 4.45727560e-20)	6	1.26518113e+01	(5.98437500e-01 1.56250000e-03 -2.71311555e-18)	7
0.42            	mag(U)          	2.61972789e-04	(5.95312500e-01 0.00000000e+00 3.90312782e-19)	7	3.77013722e+00	(6.32812500e-01 2.07812500e-01 -3.45784197e-17)	6
0.42            	rho             	8.79694031e-03	(6.14062500e-01 2.01562500e-01 -1.20466908e-21)	6	5.72311971e+00	(4.51562500e-01 1.56250000e-03 1.75018340e-18)	7
0.42            	p               	1.86852680e-03	(6.10937500e-01 2.01562500e-01 -3.11045557e-18)	6	1.26472878e+01	(5.98437500e-01 4.21875000e-02 -2.05536623e-18)	7
0.44            	mag(U)          	1.07878460e-03	(5.98437500e-01 0.00000000e+00 1.40223481e-18)	7	3.72878871e+00	(6.57812500e-01 2.07812500e-01 4.23240404e-19)	6
0.44            	rho             	1.24700206e-02	(6.10937500e-01 2.01562500e-01 -3.11045557e-18)	6	5.73018808e+00	(4.48437500e-01 1.56250000e-03 3.79310138e-18)	7
0.44            	p               	2.93595916e-03	(6.10937500e-01 2.01562500e-01 -3.11045557e-18)	6	1.26310383e+01	(5.82812500e-01 1.56250000e-03 -3.69030295e-19)	7
0.46            	mag(U)          	5.13543938e-04	(5.98437500e-01 0.00000000e+00 1.40223481e-18)	7	3.75135917e+00	(6.23437500e-01 2.07812500e-01 -5.82658279e-19)	6
0.46            	rho             	1.01800654e-02	(6.20312500e-01 2.01562500e-01 -4.07178149e-19)	6	5.75183106e+00	(4.82812500e-01 3.90625000e-02 -1.94152500e-19)	7
0.46            	p               	5.27567368e-03	(6.20312500e-01 2.01562500e-01 -4.07178149e-19)	6	1.27189024e+01	(5.82812500e-01 1.56250000e-03 -3.69030295e-19)	7
0.48            	mag(U)          	2.04928107e-04	(5.98437500e-01 0.00000000e+00 1.40223481e-18)	7	3.69605046e+00	(6.82812500e-01 2.10937500e-01 -5.20417043e-19)	3
0.48            	rho             	8.33198069e-03	(6.14062500e-01 2.01562500e-01 -1.20466908e-21)	6	5.77628166e+00	(4.76562500e-01 2.65625000e-02 2.49828289e-18)	7
0.48            	p               	3.72638418e-03	(6.14062500e-01 2.01562500e-01 -1.20466908e-21)	6	1.27305013e+01	(5.79687500e-01 1.56250000e-03 -8.59330611e-20)	7
0.5             	mag(U)          	5.94563655e-05	(5.98437500e-01 0.00000000e+00 1.40223481e-18)	7	3.79767318e+00	(6.32812500e-01 2.07812500e-01 -3.45784197e-17)	6
0.5             	rho             	9.86384167e-03	(6.10937500e-01 2.01562500e-01 -3.11045557e-18)	6	5.80570360e+00	(4.70312500e-01 1.56250000e-03 1.75078573e-19)	7
0.5             	p               	1.75409369e-03	(6.10937500e-01 2.01562500e-01 -3.11045557e-18)	6	1.26849091e+01	(5.79687500e-01 1.56250000e-03 -8.59330611e-20)	7
0.52            	mag(U)          	1.49174341e-04	(5.95312500e-01 0.00000000e+00 3.90312782e-19)	7	3.70286906e+00	(6.23437500e-01 2.10937500e-01 3.55979713e-19)	6
0.52            	rho             	1.55151388e-02	(6.17187500e-01 2.01562500e-01 4.45727560e-20)	6	5.81472241e+00	(4.64062500e-01 1.56250000e-03 3.15964622e-18)	7
0.52            	p               	4.69446161e-03	(6.10937500e-01 2.01562500e-01 -3.11045557e-18)	6	1.25754420e+01	(5.54687500e-01 4.53125000e-02 -6.61965660e-19)	7
0.54            	mag(U)          	4.16901080e-03	(5.98437500e-01 0.00000000e+00 1.40223481e-18)	7	3.76045532e+00	(6.45312500e-01 2.07812500e-01 -1.47568348e-16)	6
0.54            	rho             	5.44988881e-03	(6.17187500e-01 2.01562500e-01 4.45727560e-20)	6	5.83152737e+00	(4.89062500e-01 3.90625000e-02 -4.11535036e-18)	7
0.54            	p               	1.93743699e-03	(6.17187500e-01 2.01562500e-01 4.45727560e-20)	6	1.27097060e+01	(5.98437500e-01 1.56250000e-03 -2.71311555e-18)	7
0.56            	mag(U)          	5.18395112e-03	(6.00000000e-01 1.56250000e-03 -1.15648232e-19)	7	3.77659389e+00	(6.32812500e-01 2.10937500e-01 4.19224840e-19)	6
0.56            	rho             	8.74356789e-03	(6.14062500e-01 2.01562500e-01 -1.20466908e-21)	6	5.87315697e+00	(4.89062500e-01 1.56250000e-03 3.08596063e-19)	7
0.56            	p               	2.41783966e-03	(6.10937500e-01 2.01562500e-01 -3.11045557e-18)	6	1.26895959e+01	(5.98437500e-01 1.56250000e-03 -2.71311555e-18)	7
0.58            	mag(U)          	5.20236353e-03	(6.00000000e-01 1.56250000e-03 -1.15648232e-19)	7	3.80985024e+00	(6.35937500e-01 2.07812500e-01 -3.76764271e-17)	6
0.58            	rho             	1.19932741e-02	(6.10937500e-01 2.01562500e-01 -3.11045557e-18)	6	5.85124971e+00	(4.64062500e-01 1.56250000e-03 3.15964622e-18)	7
0.58            	p               	2.88452607e-03	(6.10937500e-01 2.01562500e-01 -3.11045557e-18)	6	1.26114098e+01	(5.73437500e-01 1.09375000e-02 -1.20607453e-18)	7
0.6             	mag(U)          	2.02890138e-03	(5.98437500e-01 0.00000000e+00 1.40223481e-18)	7	3.78862000e+00	(6.48437500e-01 2.07812500e-01 3.60824491e-17)	6
0.6             	rho             	1.09110407e-02	(6.20312500e-01 2.01562500e-01 -4.07178149e-19)	6	6.11507112e+00	(1.34218750e+00 9.98437500e-01 -5.92074173e-16)	1
0.6             	p               	5.93576926e-03	(6.20312500e-01 2.01562500e-01 -4.07178149e-19)	6	1.26279544e+01	(5.76562500e-01 1.56250000e-03 -3.69030295e-19)	7
0.62            	mag(U)          	4.02127325e-03	(5.98437500e-01 0.00000000e+00 1.40223481e-18)	7	3.75308803e+00	(6.45312500e-01 2.04687500e-01 -1.52759468e-16)	6
0.62            	rho             	7.58428790e-03	(6.17187500e-01 2.01562500e-01 4.45727560e-20)	6	6.49183620e+00	(1.28281250e+00 9.98437500e-01 -5.89591551e-16)	1
0.62            	p               	3.26235806e-03	(6.17187500e-01 2.01562500e-01 4.45727560e-20)	6	1.26189336e+01	(5.98437500e-01 4.68750000e-03 -3.16627190e-19)	7
0.64            	mag(U)          	5.50387299e-03	(6.00000000e-01 1.56250000e-03 -1.15648232e-19)	7	3.80778785e+00	(6.35937500e-01 2.07812500e-01 -3.76764271e-17)	6
0.64            	rho             	8.57088244e-03	(6.14062500e-01 2.01562500e-01 -1.20466908e-21)	6	6.75491766e+00	(1.24218750e+00 9.98437500e-01 3.37668743e-18)	1
0.64            	p               	1.77786546e-03	(6.10937500e-01 2.01562500e-01 -3.11045557e-18)	6	1.25620742e+01	(5.98437500e-01 1.56250000e-03 -2.71311555e-18)	7
0.66            	mag(U)          	5.52514914e-03	(6.00000000e-01 1.56250000e-03 -1.15648232e-19)	7	3.77867814e+00	(6.26562500e-01 2.07812500e-01 -2.55731168e-18)	6
0.66            	rho             	1.36981713e-02	(6.20312500e-01 2.00000000e-01 1.18539438e-18)	6	7.00556261e+00	(1.20468750e+00 9.98437500e-01 -2.92852443e-16)	1
0.66            	p               	5.59204908e-03	(6.10937500e-01 2.01562500e-01 -3.11045557e-18)	6	1.26026269e+01	(5.73437500e-01 1.56250000e-03 9.86724366e-19)	7
0.68            	mag(U)          	2.81106842e-03	(5.98437500e-01 0.00000000e+00 1.40223481e-18)	7	3.71497157e+00	(6.70312500e-01 2.10937500e-01 3.37909677e-19)	3
0.68            	rho             	9.94284222e-03	(6.17187500e-01 2.01562500e-01 4.45727560e-20)	6	7.22044556e+00	(1.17656250e+00 9.98437500e-01 1.46943125e-16)	1
0.68            	p               	5.77847483e-03	(6.17187500e-01 2.01562500e-01 4.45727560e-20)	6	1.24707901e+01	(5.98437500e-01 1.56250000e-03 -2.71311555e-18)	7
0.7             	mag(U)          	5.74738154e-03	(6.00000000e-01 1.56250000e-03 -1.15648232e-19)	7	3.78029618e+00	(6.42187500e-01 2.07812500e-01 1.46078775e-16)	6
0.7             	rho             	6.73276709e-03	(6.14062500e-01 2.01562500e-01 -1.20466908e-21)	6	7.41063403e+00	(1.15156250e+00 9.98437500e-01 -2.68279804e-18)	1
0.7             	p               	1.56022897e-03	(6.14062500e-01 2.01562500e-01 -1.20466908e-21)	6	1.25341509e+01	(5.98437500e-01 1.56250000e-03 -2.71311555e-18)	7
0.72            	mag(U)          	5.66563718e-03	(6.00000000e-01 1.56250000e-03 -1.15648232e-19)	7	3.73048313e+00	(6.29687500e-01 2.10937500e-01 8.17769528e-19)	6
0.72            	rho             	1.19672452e-02	(6.10937500e-01 2.01562500e-01 -3.11045557e-18)	6	7.63530301e+00	(1.12968750e+00 9.98437500e-01 1.46943125e-16)	1
0.72            	p               	2.68893505e-03	(6.10937500e-01 2.01562500e-01 -3.11045557e-18)	6	1.25229241e+01	(5.70312500e-01 1.56250000e-03 -3.69030295e-19)	7
0.74            	mag(U)          	3.68612606e-03	(5.98437500e-01 0.00000000e+00 1.40223481e-18)	7	3.73787457e+00	(6.70312500e-01 2.10937500e-01 3.37909677e-19)	3
0.74            	rho             	9.45976365e-03	(6.20312500e-01 2.01562500e-01 -4.07178149e-19)	6	7.76359597e+00	(1.11093750e+00 9.98437500e-01 1.44439421e-16)	1
0.74            	p               	5.99476303e-03	(6.20312500e-01 2.01562500e-01 -4.07178149e-19)	6	1.24930707e+01	(1.11093750e+00 9.98437500e-01 1.44439421e-16)	1
0.76            	mag(U)          	5.82165232e-03	(6.00000000e-01 1.56250000e-03 -1.15648232e-19)	7	3.74651179e+00	(6.35937500e-01 2.07812500e-01 -3.76764271e-17)	6
0.76            	rho             	6.24434365e-03	(6.14062500e-01 2.01562500e-01 -1.20466908e-21)	6	7.90546172e+00	(1.09531250e+00 9.98437500e-01 -5.56155559e-20)	0
0.76            	p               	1.38859888e-03	(6.14062500e-01 2.01562500e-01 -1.20466908e-21)	6	1.29012737e+01	(1.09531250e+00 9.98437500e-01 -5.56155559e-20)	0
0.78            	mag(U)          	4.47404492e-03	(5.98437500e-01 0.00000000e+00 1.40223481e-18)	7	3.73345832e+00	(6.42187500e-01 2.07812500e-01 1.46078775e-16)	6
0.78            	rho             	1.05295761e-02	(6.10937500e-01 2.01562500e-01 -3.11045557e-18)	6	8.05988839e+00	(1.07968750e+00 9.98437500e-01 1.45624012e-16)	0
0.78            	p               	2.15468344e-03	(6.10937500e-01 2.01562500e-01 -3.11045557e-18)	6	1.33224448e+01	(1.07968750e+00 9.98437500e-01 1.45624012e-16)	0
0.8             	mag(U)          	5.88992588e-03	(6.00000000e-01 1.56250000e-03 -1.15648232e-19)	7	3.78056777e+00	(6.54687500e-01 2.07812500e-01 -6.36868387e-19)	6
0.8             	rho             	8.98066223e-03	(6.20312500e-01 2.01562500e-01 -4.07178149e-19)	6	8.20928453e+00	(1.06406250e+00 9.98437500e-01 1.44439421e-16)	0
0.8             	p               	5.00478741e-03	(6.20312500e-01 2.01562500e-01 -4.07178149e-19)	6	1.36747946e+01	(1.06406250e+00 9.98437500e-01 1.44439421e-16)	0
0.82            	mag(U)          	5.87588273e-03	(6.00000000e-01 1.56250000e-03 -1.15648232e-19)	7	3.76127989e+00	(6.35937500e-01 2.07812500e-01 -3.76764271e-17)	6
0.82            	rho             	7.77358780e-03	(6.14062500e-01 2.01562500e-01 -1.20466908e-21)	6	8.30850677e+00	(1.05156250e+00 9.98437500e-01 1.50548097e-16)	0
0.82            	p               	3.36284235e-03	(6.14062500e-01 2.01562500e-01 -1.20466908e-21)	6	1.39662693e+01	(1.05156250e+00 9.98437500e-01 1.50548097e-16)	0
0.84            	mag(U)          	4.95575409e-03	(5.98437500e-01 0.00000000e+00 1.40223481e-18)	7	3.77417753e+00	(6.39062500e-01 2.04687500e-01 3.86096440e-19)	6
0.84            	rho             	7.59632744e-03	(6.14062500e-01 2.00000000e-01 5.34873072e-19)	6	8.42218486e+00	(1.03906250e+00 9.98437500e-01 6.13979675e-19)	0
0.84            	p               	1.94919413e-03	(6.10937500e-01 2.01562500e-01 -3.11045557e-18)	6	1.42602160e+01	(1.03906250e+00 9.98437500e-01 6.13979675e-19)	0
0.86            	mag(U)          	5.95828601e-03	(6.00000000e-01 1.56250000e-03 -1.15648232e-19)	7	3.79449248e+00	(6.29687500e-01 2.07812500e-01 1.42150952e-19)	6
0.86            	rho             	1.43532521e-02	(6.23437500e-01 2.01562500e-01 3.54775044e-19)	6	8.57709894e+00	(1.02968750e+00 9.98437500e-01 4.73434949e-19)	0
0.86            	p               	4.68700394e-03	(6.10937500e-01 2.01562500e-01 -3.11045557e-18)	6	1.47674483e+01	(1.02968750e+00 9.98437500e-01 4.73434949e-19)	0
0.88            	mag(U)          	3.41194975e-03	(5.98437500e-01 0.00000000e+00 1.40223481e-18)	7	3.67234333e+00	(6.73437500e-01 2.10937500e-01 -3.27408978e-18)	3
0.88            	rho             	9.54671352e-03	(6.14062500e-01 2.01562500e-01 -1.20466908e-21)	6	8.65667929e+00	(1.01718750e+00 9.98437500e-01 1.44439421e-16)	0
0.88            	p               	5.08853889e-03	(6.14062500e-01 2.01562500e-01 -1.20466908e-21)	6	1.49822574e+01	(1.02031250e+00 9.98437500e-01 -5.96182094e-16)	0
0.9             	mag(U)          	6.05652764e-03	(6.00000000e-01 1.56250000e-03 -1.15648232e-19)	7	3.76770869e+00	(6.42187500e-01 2.07812500e-01 1.46078775e-16)	6
0.9             	rho             	6.94710833e-03	(6.14062500e-01 2.01562500e-01 -1.20466908e-21)	6	8.79519903e+00	(1.00781250e+00 9.98437500e-01 1.47145911e-16)	0
0.9             	p               	1.64811261e-03	(6.14062500e-01 2.01562500e-01 -1.20466908e-21)	6	1.52863375e+01	(1.00781250e+00 9.98437500e-01 1.47145911e-16)	0
0.92            	mag(U)          	3.52558096e-03	(5.98437500e-01 0.00000000e+00 1.40223481e-18)	7	3.73759024e+00	(6.29687500e-01 2.07812500e-01 1.42150952e-19)	6
0.92            	rho             	1.37029046e-02	(6.10937500e-01 2.01562500e-01 -3.11045557e-18)	6	8.87747660e+00	(9.98437500e-01 9.98437500e-01 -1.84053358e-18)	0
0.92            	p               	3.40618559e-03	(6.10937500e-01 2.01562500e-01 -3.11045557e-18)	6	1.55473876e+01	(1.00156250e+00 9.98437500e-01 1.50509949e-16)	0
0.94            	mag(U)          	5.96176657e-03	(6.00000000e-01 1.56250000e-03 -1.15648232e-19)	7	3.68717522e+00	(6.42187500e-01 2.07812500e-01 1.46078775e-16)	6
0.94            	rho             	9.89039414e-03	(6.14062500e-01 2.01562500e-01 -1.20466908e-21)	6	8.98514429e+00	(9.92187500e-01 9.98437500e-01 1.06372280e-18)	0
0.94            	p               	4.94158005e-03	(6.14062500e-01 2.01562500e-01 -1.20466908e-21)	6	1.59736573e+01	(9.92187500e-01 9.98437500e-01 1.06372280e-18)	0
0.96            	mag(U)          	4.55861143e-03	(5.98437500e-01 0.00000000e+00 1.40223481e-18)	7	3.71148530e+00	(6.42187500e-01 2.07812500e-01 1.46078775e-16)	6
0.96            	rho             	6.16315703e-03	(6.14062500e-01 2.01562500e-01 -1.20466908e-21)	6	9.09708174e+00	(9.82812500e-01 9.98437500e-01 4.46329894e-19)	0
0.96            	p               	1.34609159e-03	(6.14062500e-01 2.01562500e-01 -1.20466908e-21)	6	1.62531515e+01	(9.82812500e-01 9.98437500e-01 4.46329894e-19)	0
0.98            	mag(U)          	5.93979411e-03	(6.00000000e-01 1.56250000e-03 -1.15648232e-19)	7	3.68058539e+00	(6.26562500e-01 2.10937500e-01 -4.42454875e-18)	6
0.98            	rho             	1.30051196e-02	(6.10937500e-01 2.01562500e-01 -3.11045557e-18)	6	9.20488529e+00	(9.76562500e-01 9.98437500e-01 -3.13615517e-19)	0
0.98            	p               	2.88317647e-03	(6.10937500e-01 2.01562500e-01 -3.11045557e-18)	6	1.66491625e+01	(9.76562500e-01 9.98437500e-01 -3.13615517e-19)	0
1               	mag(U)          	6.00012999e-03	(6.00000000e-01 1.56250000e-03 -1.15648232e-19)	7	3.69085474e+00	(6.48437500e-01 2.07812500e-01 3.60824491e-17)	6
1               	rho             	5.40815524e-03	(6.17187500e-01 2.01562500e-01 4.45727560e-20)	6	9.30159700e+00	(9.67187500e-01 9.98437500e-01 1.48301389e-16)	0
1               	p               	1.74772245e-03	(6.17187500e-01 2.01562500e-01 4.45727560e-20)	6	1.67998181e+01	(9.67187500e-01 9.98437500e-01 1.48301389e-16)	0
1.02            	mag(U)          	5.83294764e-03	(6.00000000e-01 1.56250000e-03 -1.15648232e-19)	7	3.70711832e+00	(6.29687500e-01 2.07812500e-01 1.42150952e-19)	6
1.02            	rho             	9.58614392e-03	(6.14062500e-01 2.01562500e-01 -1.20466908e-21)	6	9.43838474e+00	(9.60937500e-01 9.98437500e-01 1.50178665e-16)	0
1.02            	p               	2.24716728e-03	(6.10937500e-01 2.01562500e-01 -3.11045557e-18)	6	1.72333196e+01	(9.60937500e-01 9.98437500e-01 1.50178665e-16)	0
1.04            	mag(U)          	5.85498802e-03	(5.98437500e-01 0.00000000e+00 1.40223481e-18)	7	3.66100170e+00	(6.54687500e-01 2.07812500e-01 -6.36868387e-19)	6
1.04            	rho             	1.24004467e-02	(6.23437500e-01 2.01562500e-01 3.54775044e-19)	6	9.54711176e+00	(9.54687500e-01 9.98437500e-01 1.47598666e-16)	0
1.04            	p               	5.79416394e-03	(6.10937500e-01 2.01562500e-01 -3.11045557e-18)	6	1.75527591e+01	(9.54687500e-01 9.98437500e-01 1.47598666e-16)	0
1.06            	mag(U)          	4.44549596e-03	(5.98437500e-01 0.00000000e+00 1.40223481e-18)	7	3.65548428e+00	(6.42187500e-01 2.07812500e-01 1.46078775e-16)	6
1.06            	rho             	6.44518550e-03	(6.14062500e-01 2.01562500e-01 -1.20466908e-21)	6	9.54738149e+00	(9.48437500e-01 9.98437500e-01 1.45849888e-16)	0
1.06            	p               	1.56038911e-03	(6.14062500e-01 2.01562500e-01 -1.20466908e-21)	6	1.76380360e+01	(9.48437500e-01 9.98437500e-01 1.45849888e-16)	0
1.08            	mag(U)          	5.85074299e-03	(6.00000000e-01 1.56250000e-03 -1.15648232e-19)	7	3.63659095e+00	(6.29687500e-01 2.07812500e-01 1.42150952e-19)	6
1.08            	rho             	1.15704648e-02	(6.10937500e-01 2.01562500e-01 -3.11045557e-18)	6	9.62520199e+00	(9.42187500e-01 9.98437500e-01 -1.51672254e-16)	0
1.08            	p               	2.24852888e-03	(6.10937500e-01 2.01562500e-01 -3.11045557e-18)	6	1.79323350e+01	(9.42187500e-01 9.98437500e-01 -1.51672254e-16)	0
1.1             	mag(U)          	5.83546021e-03	(6.00000000e-01 1.56250000e-03 -1.15648232e-19)	7	3.66778630e+00	(6.51562500e-01 2.07812500e-01 3.55995776e-17)	6
1.1             	rho             	7.80327476e-03	(6.17187500e-01 2.01562500e-01 4.45727560e-20)	6	9.78834485e+00	(9.35937500e-01 9.98437500e-01 4.46329894e-19)	0
1.1             	p               	3.48732028e-03	(6.17187500e-01 2.01562500e-01 4.45727560e-20)	6	1.83425387e+01	(9.35937500e-01 9.98437500e-01 4.46329894e-19)	0
1.12            	mag(U)          	4.76604665e-03	(5.98437500e-01 0.00000000e+00 1.40223481e-18)	7	3.59842446e+00	(6.32812500e-01 2.10937500e-01 4.19224840e-19)	6
1.12            	rho             	8.62284136e-03	(6.14062500e-01 2.01562500e-01 -1.20466908e-21)	6	9.87821728e+00	(9.29687500e-01 9.98437500e-01 -3.13615517e-19)	0
1.12            	p               	2.13265391e-03	(6.10937500e-01 2.01562500e-01 -3.11045557e-18)	6	1.82948420e+01	(9.29687500e-01 9.98437500e-01 -3.13615517e-19)	0
1.14            	mag(U)          	5.77837356e-03	(6.00000000e-01 1.56250000e-03 -1.15648232e-19)	7	3.63239544e+00	(6.32812500e-01 2.07812500e-01 -3.45784197e-17)	6
1.14            	rho             	1.42907873e-02	(6.23437500e-01 2.01562500e-01 3.54775044e-19)	6	9.80556448e+00	(9.26562500e-01 9.98437500e-01 1.52010766e-16)	0
1.14            	p               	4.76918173e-03	(6.10937500e-01 2.01562500e-01 -3.11045557e-18)	6	1.86026529e+01	(9.26562500e-01 9.98437500e-01 1.52010766e-16)	0
1.16            	mag(U)          	5.61399186e-03	(5.98437500e-01 0.00000000e+00 1.40223481e-18)	7	3.62061861e+00	(6.42187500e-01 2.07812500e-01 1.46078775e-16)	6
1.16            	rho             	6.08613776e-03	(6.14062500e-01 2.01562500e-01 -1.20466908e-21)	6	1.00482964e+01	(9.20312500e-01 9.98437500e-01 1.48301389e-16)	0
1.16            	p               	1.64909169e-03	(6.14062500e-01 2.01562500e-01 -1.20466908e-21)	6	1.92467334e+01	(9.20312500e-01 9.98437500e-01 1.48301389e-16)	0
1.18            	mag(U)          	4.41136897e-03	(5.98437500e-01 0.00000000e+00 1.40223481e-18)	7	3.56457300e+00	(6.76562500e-01 2.10937500e-01 -8.57322829e-20)	3
1.18            	rho             	1.11209135e-02	(6.14062500e-01 2.01562500e-01 -1.20466908e-21)	6	9.96108237e+00	(9.14062500e-01 9.98437500e-01 1.50178665e-16)	0
1.18            	p               	2.49989374e-03	(6.10937500e-01 2.01562500e-01 -3.11045557e-18)	6	1.89911689e+01	(9.17187500e-01 9.98437500e-01 -2.31296463e-19)	0
1.2             	mag(U)          	5.59830052e-03	(6.00000000e-01 1.56250000e-03 -1.15648232e-19)	7	3.58064692e+00	(6.51562500e-01 2.07812500e-01 3.55995776e-17)	6
1.2             	rho             	7.03032664e-03	(6.20312500e-01 2.00000000e-01 1.18539438e-18)	6	1.01714071e+01	(9.10937500e-01 9.98437500e-01 1.46262487e-16)	0
1.2             	p               	4.00612976e-03	(6.20312500e-01 2.01562500e-01 -4.07178149e-19)	6	1.97082819e+01	(9.10937500e-01 9.98437500e-01 1.46262487e-16)	0
1.22            	mag(U)          	5.66056173e-03	(6.00000000e-01 1.56250000e-03 -1.15648232e-19)	7	3.53697588e+00	(6.82812500e-01 2.10937500e-01 -5.20417043e-19)	3
1.22            	rho             	8.37101865e-03	(6.14062500e-01 2.01562500e-01 -1.20466908e-21)	6	1.00056876e+01	(9.07812500e-01 9.98437500e-01 1.47598666e-16)	0