# Field minima and maxima
# Time          	field           	min             	location(min)   	processor       	max             	location(max)   	processor       
0.031642857     	mag(U)          	1.05532245e-14	(6.00000000e-01 4.06250000e-02 2.89120579e-20)	4	3.19082712e+00	(6.65625000e-01 2.21875000e-01 1.60220988e-19)	4
0.031642857     	rho             	2.81571777e-01	(6.21875000e-01 2.03125000e-01 2.85105016e-20)	4	6.69833819e+00	(5.84375000e-01 1.28125000e-01 1.32473443e-18)	4
0.031642857     	p               	2.59836344e-01	(6.21875000e-01 2.03125000e-01 2.85105016e-20)	4	1.93746855e+01	(5.84375000e-01 1.28125000e-01 1.32473443e-18)	4
0.062727273     	mag(U)          	1.96829523e-14	(6.00000000e-01 3.12500000e-03 -4.33680869e-20)	4	3.19241946e+00	(7.53125000e-01 2.59375000e-01 -8.87439556e-20)	1
0.062727273     	rho             	2.42629754e-01	(6.15625000e-01 2.03125000e-01 3.08596063e-19)	4	6.31384128e+00	(5.96875000e-01 6.56250000e-02 -2.85105016e-20)	4
0.062727273     	p               	2.46120277e-01	(6.15625000e-01 2.03125000e-01 3.08596063e-19)	4	1.71346763e+01	(5.84375000e-01 6.56250000e-02 -2.31296463e-19)	4
0.09165201      	mag(U)          	7.62173720e-09	(6.00000000e-01 3.12500000e-03 -4.33680869e-20)	4	3.23195403e+00	(6.46875000e-01 2.09375000e-01 -7.70520398e-17)	4
0.09165201      	rho             	1.34080837e-01	(6.15625000e-01 2.03125000e-01 3.08596063e-19)	4	6.39054412e+00	(5.34375000e-01 2.18750000e-02 -7.39265259e-19)	4
0.09165201      	p               	1.02330168e-01	(6.15625000e-01 2.03125000e-01 3.08596063e-19)	4	1.73173486e+01	(5.90625000e-01 3.12500000e-03 1.49479355e-19)	4
0.11944288      	mag(U)          	3.07061661e-03	(5.96875000e-01 0.00000000e+00 2.12503626e-18)	4	3.39914856e+00	(6.59375000e-01 2.09375000e-01 1.78291024e-19)	4
0.11944288      	rho             	6.05055601e-02	(6.21875000e-01 2.03125000e-01 2.85105016e-20)	4	6.30559483e+00	(5.09375000e-01 0.00000000e+00 -3.32488666e-19)	4
0.11944288      	p               	3.16306741e-02	(6.15625000e-01 2.03125000e-01 3.08596063e-19)	4	1.72221833e+01	(5.09375000e-01 3.12500000e-03 2.25765025e-18)	4
0.14684685      	mag(U)          	4.47777887e-04	(5.90625000e-01 0.00000000e+00 7.51713506e-19)	4	3.54766963e+00	(6.59375000e-01 2.09375000e-01 1.78291024e-19)	4
0.14684685      	rho             	4.76028587e-02	(6.21875000e-01 2.03125000e-01 2.85105016e-20)	4	6.07535895e+00	(4.90625000e-01 7.18750000e-02 2.16840434e-20)	4
0.14684685      	p               	2.31902323e-02	(6.15625000e-01 2.03125000e-01 3.08596063e-19)	4	1.52453874e+01	(4.84375000e-01 2.18750000e-02 1.29762938e-18)	4
0.17368548      	mag(U)          	4.76112338e-03	(5.96875000e-01 0.00000000e+00 2.12503626e-18)	4	3.53279107e+00	(6.65625000e-01 2.09375000e-01 2.02384406e-19)	4
0.17368548      	rho             	4.36733963e-02	(6.28125000e-01 2.03125000e-01 1.73110947e-18)	4	5.93294792e+00	(4.90625000e-01 1.28125000e-01 3.71299088e-18)	4
0.17368548      	p               	3.61401534e-02	(6.28125000e-01 2.03125000e-01 1.73110947e-18)	4	1.42936136e+01	(4.78125000e-01 9.68750000e-02 1.05006988e-19)	4
0.20027778      	mag(U)          	8.73603123e-03	(6.00000000e-01 3.12500000e-03 -4.33680869e-20)	4	3.56182790e+00	(6.65625000e-01 2.15625000e-01 1.16451344e-20)	4
0.20027778      	rho             	1.85249626e-02	(6.28125000e-01 2.03125000e-01 1.73110947e-18)	4	5.89938723e+00	(4.59375000e-01 5.93750000e-02 -8.07128284e-20)	4
0.20027778      	p               	7.29495166e-03	(6.28125000e-01 2.03125000e-01 1.73110947e-18)	4	1.36560329e+01	(4.65625000e-01 5.31250000e-02 1.97364951e-19)	4
0.22729542      	mag(U)          	8.34023997e-03	(5.96875000e-01 0.00000000e+00 2.12503626e-18)	4	3.62688183e+00	(6.71875000e-01 2.09375000e-01 -9.93249657e-19)	4
0.22729542      	rho             	1.60944215e-02	(6.28125000e-01 2.03125000e-01 1.73110947e-18)	4	5.86464533e+00	(4.53125000e-01 3.12500000e-03 -3.41784696e-18)	4
0.22729542      	p               	5.88484871e-03	(6.21875000e-01 2.03125000e-01 2.85105016e-20)	4	1.33301237e+01	(4.53125000e-01 3.12500000e-03 -3.41784696e-18)	4
0.25411799      	mag(U)          	9.06644185e-03	(6.00000000e-01 3.12500000e-03 -4.33680869e-20)	4	3.56660597e+00	(6.71875000e-01 2.09375000e-01 -9.93249657e-19)	4
0.25411799      	rho             	3.69400501e-02	(6.21875000e-01 2.03125000e-01 2.85105016e-20)	4	5.79342225e+00	(4.46875000e-01 8.43750000e-02 -3.96938462e-19)	4
0.25411799      	p               	1.72732217e-02	(6.21875000e-01 2.03125000e-01 2.85105016e-20)	4	1.29663662e+01	(4.71875000e-01 3.12500000e-03 -3.42888976e-18)	4
0.28128845      	mag(U)          	6.86383094e-03	(5.96875000e-01 0.00000000e+00 2.12503626e-18)	4	3.58702835e+00	(6.40625000e-01 2.15625000e-01 -2.61854902e-18)	4
0.28128845      	rho             	3.32909798e-02	(6.34375000e-01 2.03125000e-01 -1.26490253e-20)	4	5.76155426e+00	(4.34375000e-01 3.12500000e-03 4.86786698e-19)	4
0.28128845      	p               	2.75146757e-02	(6.34375000e-01 2.03125000e-01 -1.26490253e-20)	4	1.28200830e+01	(5.28125000e-01 3.12500000e-03 -4.40718144e-18)	4
0.30810243      	mag(U)          	6.76649959e-03	(5.96875000e-01 0.00000000e+00 2.12503626e-18)	4	3.59996172e+00	(6.40625000e-01 2.15625000e-01 -2.61854902e-18)	4
0.30810243      	rho             	1.49490268e-02	(6.34375000e-01 2.03125000e-01 -1.26490253e-20)	4	5.75793766e+00	(4.28125000e-01 3.12500000e-03 4.86786698e-19)	4
0.30810243      	p               	1.07385537e-02	(6.28125000e-01 2.03125000e-01 1.73110947e-18)	4	1.27524326e+01	(5.40625000e-01 3.12500000e-03 3.01960344e-18)	4
0.33492011      	mag(U)          	9.83532320e-03	(6.00000000e-01 3.12500000e-03 -4.33680869e-20)	4	3.54311049e+00	(6.65625000e-01 2.09375000e-01 2.02384406e-19)	4
0.33492011      	rho             	1.87777597e-02	(6.21875000e-01 2.03125000e-01 2.85105016e-20)	4	5.72291490e+00	(4.21875000e-01 3.12500000e-03 -4.46440322e-18)	4
0.33492011      	p               	6.31084143e-03	(6.21875000e-01 2.03125000e-01 2.85105016e-20)	4	1.26686125e+01	(5.40625000e-01 3.12500000e-03 3.01960344e-18)	4
0.36183896      	mag(U)          	1.00921184e-02	(6.00000000e-01 3.12500000e-03 -4.33680869e-20)	4	3.60183597e+00	(6.15625000e-01 2.09375000e-01 2.37881988e-18)	4
0.36183896      	rho             	2.85811582e-02	(6.21875000e-01 2.03125000e-01 2.85105016e-20)	4	5.68752358e+00	(4.71875000e-01 3.12500000e-03 -3.42888976e-18)	4
0.36183896      	p               	1.10851723e-02	(6.21875000e-01 2.03125000e-01 2.85105016e-20)	4	1.27687628e+01	(5.96875000e-01 3.12500000e-03 3.08596063e-19)	4
0.3889182       	mag(U)          	1.00406194e-02	(6.00000000e-01 3.12500000e-03 -4.33680869e-20)	4	3.67191210e+00	(6.53125000e-01 2.15625000e-01 2.47318562e-18)	4
0.3889182       	rho             	3.32972715e-02	(6.40625000e-01 2.03125000e-01 7.52570829e-17)	4	5.69891956e+00	(4.46875000e-01 3.12500000e-03 2.60911245e-19)	4
0.3889182       	p               	1.64686986e-02	(6.15625000e-01 2.03125000e-01 3.08596063e-19)	4	1.28271329e+01	(5.96875000e-01 3.12500000e-03 3.08596063e-19)	4
0.41575894      	mag(U)          	9.86962913e-03	(6.00000000e-01 3.12500000e-03 -4.33680869e-20)	4	3.67991352e+00	(6.28125000e-01 2.09375000e-01 -2.74503928e-18)	4
0.41575894      	rho             	2.14458193e-02	(6.34375000e-01 2.03125000e-01 -1.26490253e-20)	4	5.68216721e+00	(4.46875000e-01 3.12500000e-03 2.60911245e-19)	4
0.41575894      	p               	1.63150829e-02	(6.34375000e-01 2.03125000e-01 -1.26490253e-20)	4	1.25817700e+01	(5.96875000e-01 3.12500000e-03 3.08596063e-19)	4
0.44246486      	mag(U)          	9.77235251e-03	(6.00000000e-01 3.12500000e-03 -4.33680869e-20)	4	3.59590588e+00	(6.65625000e-01 2.09375000e-01 2.02384406e-19)	4
0.44246486      	rho             	1.82438808e-02	(6.21875000e-01 2.03125000e-01 2.85105016e-20)	4	5.76013198e+00	(4.71875000e-01 3.12500000e-03 -3.42888976e-18)	4
0.44246486      	p               	5.66388816e-03	(6.21875000e-01 2.03125000e-01 2.85105016e-20)	4	1.28016263e+01	(5.65625000e-01 3.12500000e-03 2.66372412e-18)	4
0.4696853       	mag(U)          	3.03008100e-03	(5.96875000e-01 0.00000000e+00 2.12503626e-18)	4	3.72437875e+00	(6.71875000e-01 2.15625000e-01 -4.55766469e-20)	4
0.4696853       	rho             	2.19128259e-02	(6.21875000e-01 2.03125000e-01 2.85105016e-20)	4	5.77439122e+00	(4.71875000e-01 3.12500000e-03 -3.42888976e-18)	4
0.4696853       	p               	6.86568666e-03	(6.21875000e-01 2.03125000e-01 2.85105016e-20)	4	1.25882278e+01	(5.71875000e-01 3.12500000e-03 2.53020663e-18)	4
0.4967848       	mag(U)          	1.05100878e-02	(6.00000000e-01 3.12500000e-03 -4.33680869e-20)	4	3.65061469e+00	(6.78125000e-01 2.15625000e-01 2.56755137e-18)	4
0.4967848       	rho             	2.81570722e-02	(6.21875000e-01 2.03125000e-01 2.85105016e-20)	4	5.81829917e+00	(4.84375000e-01 3.12500000e-03 -4.92910432e-20)	4
0.4967848       	p               	1.07646176e-02	(6.15625000e-01 2.03125000e-01 3.08596063e-19)	4	1.27684820e+01	(5.96875000e-01 3.12500000e-03 3.08596063e-19)	4
0.52353674      	mag(U)          	1.05080437e-02	(6.00000000e-01 3.12500000e-03 -4.33680869e-20)	4	3.76909663e+00	(6.34375000e-01 2.09375000e-01 2.37681210e-18)	4
0.52353674      	rho             	2.17660806e-02	(6.28125000e-01 2.03125000e-01 1.73110947e-18)	4	5.81606009e+00	(4.90625000e-01 3.12500000e-03 -1.70259897e-19)	4
0.52353674      	p               	1.55169835e-02	(6.28125000e-01 2.03125000e-01 1.73110947e-18)	4	1.27265356e+01	(5.53125000e-01 3.12500000e-03 -1.68613516e-18)	4
0.5504857       	mag(U)          	1.10306115e-02	(6.00000000e-01 3.12500000e-03 -4.33680869e-20)	4	3.71406136e+00	(6.84375000e-01 2.15625000e-01 2.16840434e-20)	4
0.5504857       	rho             	8.99232016e-03	(6.28125000e-01 2.03125000e-01 1.73110947e-18)	4	5.85064821e+00	(5.09375000e-01 3.12500000e-03 2.25765025e-18)	4
0.5504857       	p               	2.64298976e-03	(6.28125000e-01 2.03125000e-01 1.73110947e-18)	4	1.27403590e+01	(5.96875000e-01 3.12500000e-03 3.08596063e-19)	4
0.5771374       	mag(U)          	1.09785175e-02	(6.00000000e-01 3.12500000e-03 -4.33680869e-20)	4	3.65845171e+00	(6.71875000e-01 2.09375000e-01 -9.93249657e-19)	4
0.5771374       	rho             	1.35267382e-02	(6.28125000e-01 2.03125000e-01 1.73110947e-18)	4	5.85138893e+00	(4.71875000e-01 3.12500000e-03 -3.42888976e-18)	4
0.5771374       	p               	4.77582905e-03	(6.21875000e-01 2.03125000e-01 2.85105016e-20)	4	1.26497709e+01	(5.53125000e-01 3.12500000e-03 -1.68613516e-18)	4
0.60376005      	mag(U)          	1.08375384e-02	(5.96875000e-01 0.00000000e+00 2.12503626e-18)	4	3.60905239e+00	(6.46875000e-01 2.09375000e-01 -7.70520398e-17)	4
0.60376005      	rho             	2.55171556e-02	(6.21875000e-01 2.03125000e-01 2.85105016e-20)	4	5.88548639e+00	(5.03125000e-01 3.12500000e-03 5.56155559e-20)	4
0.60376005      	p               	1.05445615e-02	(6.21875000e-01 2.03125000e-01 2.85105016e-20)	4	1.26548436e+01	(5.96875000e-01 3.12500000e-03 3.08596063e-19)	4
0.63093611      	mag(U)          	1.13974620e-02	(6.00000000e-01 3.12500000e-03 -4.33680869e-20)	4	3.73072306e+00	(6.46875000e-01 2.15625000e-01 -3.26003531e-18)	4
0.63093611      	rho             	2.82213542e-02	(6.40625000e-01 2.03125000e-01 7.52570829e-17)	4	6.37546140e+00	(1.29062500e+00 9.96875000e-01 1.45906106e-16)	2
0.63093611      	p               	2.13689373e-02	(6.15625000e-01 2.03125000e-01 3.08596063e-19)	4	1.25621287e+01	(5.46875000e-01 3.12500000e-03 -2.46615839e-18)	4
0.65808686      	mag(U)          	1.16435625e-02	(6.00000000e-01 3.12500000e-03 -4.33680869e-20)	4	3.64224919e+00	(6.40625000e-01 2.09375000e-01 7.35215563e-17)	4
0.65808686      	rho             	1.39555739e-02	(6.34375000e-01 2.03125000e-01 -1.26490253e-20)	4	6.65788845e+00	(1.24062500e+00 9.96875000e-01 1.51254837e-16)	2
0.65808686      	p               	1.18518997e-02	(6.34375000e-01 2.03125000e-01 -1.26490253e-20)	4	1.26229841e+01	(5.96875000e-01 3.12500000e-03 3.08596063e-19)	4
0.68478126      	mag(U)          	1.16715402e-02	(6.00000000e-01 3.12500000e-03 -4.33680869e-20)	4	3.65181079e+00	(6.65625000e-01 2.09375000e-01 2.02384406e-19)	4
0.68478126      	rho             	1.62570426e-02	(6.28125000e-01 2.03125000e-01 1.73110947e-18)	4	7.04729112e+00	(1.19687500e+00 9.96875000e-01 7.23640701e-17)	2
0.68478126      	p               	6.91335549e-03	(6.21875000e-01 2.03125000e-01 2.85105016e-20)	4	1.25136779e+01	(5.53125000e-01 3.12500000e-03 -1.68613516e-18)	4
0.71164075      	mag(U)          	1.20076745e-02	(6.00000000e-01 3.12500000e-03 -4.33680869e-20)	4	3.75382555e+00	(6.59375000e-01 2.09375000e-01 1.78291024e-19)	4
0.71164075      	rho             	1.96931727e-02	(6.21875000e-01 2.03125000e-01 2.85105016e-20)	4	7.25012117e+00	(1.15937500e+00 9.96875000e-01 -2.22549964e-16)	2
0.71164075      	p               	6.06120088e-03	(6.21875000e-01 2.03125000e-01 2.85105016e-20)	4	1.25279232e+01	(5.96875000e-01 3.12500000e-03 3.08596063e-19)	4
0.73844648      	mag(U)          	1.14059825e-02	(5.96875000e-01 0.00000000e+00 2.12503626e-18)	4	3.71995385e+00	(6.53125000e-01 2.09375000e-01 2.16840434e-20)	4
0.73844648      	rho             	2.89033453e-02	(6.21875000e-01 2.03125000e-01 2.85105016e-20)	4	7.55421133e+00	(1.13437500e+00 9.96875000e-01 7.17426616e-17)	2
0.73844648      	p               	8.61138100e-03	(6.15625000e-01 2.03125000e-01 3.08596063e-19)	4	1.24188766e+01	(5.59375000e-01 3.12500000e-03 2.66372412e-18)	4
0.76541703      	mag(U)          	1.21415179e-02	(6.00000000e-01 3.12500000e-03 -4.33680869e-20)	4	3.64082404e+00	(6.84375000e-01 2.09375000e-01 -1.84880564e-17)	4
0.76541703      	rho             	2.59682140e-02	(6.34375000e-01 2.03125000e-01 -1.26490253e-20)	4	7.72278215e+00	(1.10937500e+00 9.96875000e-01 3.67785470e-18)	2
0.76541703      	p               	1.92844983e-02	(6.15625000e-01 2.03125000e-01 3.08596063e-19)	4	1.24452224e+01	(5.96875000e-01 3.12500000e-03 3.08596063e-19)	4
0.79260006      	mag(U)          	8.72428080e-03	(5.96875000e-01 0.00000000e+00 2.12503626e-18)	4	3.64404562e+00	(6.71875000e-01 2.09375000e-01 -9.93249657e-19)	4
0.79260006      	rho             	1.55850002e-02	(6.28125000e-01 2.03125000e-01 1.73110947e-18)	4	7.90077631e+00	(1.09062500e+00 9.96875000e-01 3.78828270e-18)	2
0.79260006      	p               	6.83119425e-03	(6.28125000e-01 2.03125000e-01 1.73110947e-18)	4	1.29557386e+01	(1.09062500e+00 9.96875000e-01 3.78828270e-18)	2
0.82            	mag(U)          	1.19199581e-02	(6.00000000e-01 3.12500000e-03 -4.33680869e-20)	4	3.77421655e+00	(6.78125000e-01 2.09375000e-01 -1.63818933e-17)	4
0.82            	rho             	1.49070446e-02	(6.28125000e-01 2.03125000e-01 1.73110947e-18)	4	8.09408198e+00	(1.07187500e+00 9.96875000e-01 2.96500784e-16)	2
0.82            	p               	3.18550997e-03	(6.21875000e-01 2.03125000e-01 2.85105016e-20)	4	1.34679400e+01	(1.07187500e+00 9.96875000e-01 2.96500784e-16)	2
0.84737995      	mag(U)          	1.22140165e-02	(6.00000000e-01 3.12500000e-03 -4.33680869e-20)	4	3.57783398e+00	(6.65625000e-01 2.09375000e-01 2.02384406e-19)	4
0.84737995      	rho             	1.95226937e-02	(6.21875000e-01 2.03125000e-01 2.85105016e-20)	4	8.26485125e+00	(1.05312500e+00 9.96875000e-01 -5.36479297e-19)	2
0.84737995      	p               	5.83007498e-03	(6.21875000e-01 2.03125000e-01 2.85105016e-20)	4	1.39268135e+01	(1.05312500e+00 9.96875000e-01 -5.36479297e-19)	2
0.87481907      	mag(U)          	9.75380963e-03	(5.96875000e-01 0.00000000e+00 2.12503626e-18)	4	3.55018588e+00	(6.71875000e-01 2.09375000e-01 -9.93249657e-19)	4
0.87481907      	rho             	2.76994083e-02	(6.34375000e-01 2.03125000e-01 -1.26490253e-20)	4	8.36903217e+00	(1.04062500e+00 9.96875000e-01 7.17426616e-17)	2
0.87481907      	p               	1.44986432e-02	(6.15625000e-01 2.03125000e-01 3.08596063e-19)	4	1.43303445e+01	(1.04062500e+00 9.96875000e-01 7.17426616e-17)	2
0.90282516      	mag(U)          	1.24102512e-02	(6.00000000e-01 3.12500000e-03 -4.33680869e-20)	4	3.60999139e+00	(6.40625000e-01 2.15625000e-01 -2.61854902e-18)	4
0.90282516      	rho             	1.56012016e-02	(6.34375000e-01 2.03125000e-01 -1.26490253e-20)	4	8.44649758e+00	(1.02187500e+00 9.96875000e-01 7.40452862e-17)	2
0.90282516      	p               	8.29681747e-03	(6.34375000e-01 2.03125000e-01 -1.26490253e-20)	4	1.44207887e+01	(1.02187500e+00 9.96875000e-01 7.40452862e-17)	2
0.9305083       	mag(U)          	1.20667069e-02	(6.00000000e-01 3.12500000e-03 -4.33680869e-20)	4	3.55769153e+00	(6.90625000e-01 2.09375000e-01 -3.45740026e-19)	4
0.9305083       	rho             	9.60274991e-03	(6.28125000e-01 2.03125000e-01 1.73110947e-18)	4	8.72262937e+00	(1.00937500e+00 9.96875000e-01 7.23640701e-17)	3
0.9305083       	p               	2.62152686e-03	(6.28125000e-01 2.03125000e-01 1.73110947e-18)	4	1.51995187e+01	(1.00937500e+00 9.96875000e-01 7.23640701e-17)	3
0.95833068      	mag(U)          	1.11593698e-02	(5.96875000e-01 0.00000000e+00 2.12503626e-18)	4	3.53271065e+00	(6.59375000e-01 2.09375000e-01 1.78291024e-19)	4
0.95833068      	rho             	1.84328359e-02	(6.21875000e-01 2.03125000e-01 2.85105016e-20)	4	8.84705037e+00	(9.96875000e-01 9.96875000e-01 -7.14463131e-17)	3
0.95833068      	p               	5.68558660e-03	(6.21875000e-01 2.03125000e-01 2.85105016e-20)	4	1.56250508e+01	(9.96875000e-01 9.96875000e-01 -7.14463131e-17)	3
0.98647079      	mag(U)          	1.14442783e-02	(6.00000000e-01 3.12500000e-03 -4.33680869e-20)	4	3.55080241e+00	(6.46875000e-01 2.09375000e-01 -7.70520398e-17)	4
0.98647079      	rho             	3.05110980e-02	(6.21875000e-01 2.03125000e-01 2.85105016e-20)	4	8.92095682e+00	(9.90625000e-01 9.96875000e-01 7.27786771e-17)	3
0.98647079      	p               	1.16076866e-02	(6.21875000e-01 2.03125000e-01 2.85105016e-20)	4	1.59346642e+01	(9.90625000e-01 9.96875000e-01 7.27786771e-17)	3
1.0148449       	mag(U)          	1.15456400e-02	(6.00000000e-01 3.12500000e-03 -4.33680869e-20)	4	3.53027342e+00	(6.53125000e-01 2.15625000e-01 2.47318562e-18)	4
1.0148449       	rho             	2.44794820e-02	(6.40625000e-01 2.03125000e-01 7.52570829e-17)	4	9.03665685e+00	(9.78125000e-01 9.96875000e-01 -7.22956048e-17)	3
1.0148449       	p               	1.86405517e-02	(6.40625000e-01 2.03125000e-01 7.52570829e-17)	4	1.63099750e+01	(9.78125000e-01 9.96875000e-01 -7.22956048e-17)	3
1.0428029       	mag(U)          	1.00017474e-02	(5.96875000e-01 0.00000000e+00 2.12503626e-18)	4	3.52971906e+00	(6.28125000e-01 2.09375000e-01 -2.74503928e-18)	4
1.0428029       	rho             	1.59270111e-02	(6.34375000e-01 2.03125000e-01 -1.26490253e-20)	4	9.21925029e+00	(9.65625000e-01 9.96875000e-01 7.51056962e-17)	3
1.0428029       	p               	1.03085661e-02	(6.28125000e-01 2.03125000e-01 1.73110947e-18)	4	1.67858204e+01	(9.65625000e-01 9.96875000e-01 7.51056962e-17)	3
1.0710411       	mag(U)          	1.13413870e-02	(6.00000000e-01 3.12500000e-03 -4.33680869e-20)	4	3.48843870e+00	(6.65625000e-01 2.09375000e-01 2.02384406e-19)	4
1.0710411       	rho             	1.92263988e-02	(6.28125000e-01 2.03125000e-01 1.73110947e-18)	4	9.39111002e+00	(9.59375000e-01 9.96875000e-01 -1.56948303e-18)	3
1.0710411       	p               	5.67836653e-03	(6.21875000e-01 2.03125000e-01 2.85105016e-20)	4	1.72237501e+01	(9.59375000e-01 9.96875000e-01 -1.56948303e-18)	3
1.0997169       	mag(U)          	1.10040873e-02	(5.96875000e-01 0.00000000e+00 2.12503626e-18)	4	3.53071723e+00	(6.59375000e-01 2.09375000e-01 1.78291024e-19)	4
1.0997169       	rho             	2.27735797e-02	(6.21875000e-01 2.03125000e-01 2.85105016e-20)	4	9.56983541e+00	(9.46875000e-01 9.96875000e-01 7.46770347e-17)	3
1.0997169       	p               	6.21157393e-03	(6.21875000e-01 2.03125000e-01 2.85105016e-20)	4	1.75371536e+01	(9.46875000e-01 9.96875000e-01 7.46770347e-17)	3
1.1282541       	mag(U)          	1.09985125e-02	(5.96875000e-01 0.00000000e+00 2.12503626e-18)	4	3.50878393e+00	(6.53125000e-01 2.09375000e-01 2.16840434e-20)	4
1.1282541       	rho             	3.12269481e-02	(6.21875000e-01 2.03125000e-01 2.85105016e-20)	4	9.65598755e+00	(9.40625000e-01 9.96875000e-01 2.16840434e-20)	3
1.1282541       	p               	8.75780360e-03	(6.15625000e-01 2.03125000e-01 3.08596063e-19)	4	1.79302385e+01	(9.40625000e-01 9.96875000e-01 2.16840434e-20)	3
1.156762        	mag(U)          	9.35432982e-03	(5.96875000e-01 0.00000000e+00 2.12503626e-18)	4	3.50126837e+00	(6.78125000e-01 2.09375000e-01 -1.63818933e-17)	4
1.156762        	rho             	2.62369171e-02	(6.28125000e-01 2.03125000e-01 1.73110947e-18)	4	9.58805815e+00	(9.34375000e-01 9.96875000e-01 7.33980777e-17)	3
1.156762        	p               	1.64158790e-02	(6.28125000e-01 2.03125000e-01 1.73110947e-18)	4	1.80307984e+01	(9.34375000e-01 9.96875000e-01 7.33980777e-17)	3
1.1855895       	mag(U)          	1.15188810e-02	(6.00000000e-01 3.12500000e-03 -4.33680869e-20)	4	3.47554546e+00	(6.71875000e-01 2.09375000e-01 -9.93249657e-19)	4
1.1855895       	rho             	1.45451342e-02	(6.28125000e-01 2.03125000e-01 1.73110947e-18)	4	9.53732043e+00	(9.28125000e-01 9.96875000e-01 7.32003112e-17)	3
1.1855895       	p               	5.04986266e-03	(6.28125000e-01 2.03125000e-01 1.73110947e-18)	4	1.79756219e+01	(9.28125000e-01 9.96875000e-01 7.32003112e-17)	3
1.2143685       	mag(U)          	1.10385269e-02	(5.96875000e-01 0.00000000e+00 2.12503626e-18)	4	3.54608003e+00	(6.78125000e-01 2.09375000e-01 -1.63818933e-17)	4
1.2143685       	rho             	1.30944273e-02	(6.28125000e-01 2.03125000e-01 1.73110947e-18)	4	9.88301482e+00	(9.15625000e-01 9.96875000e-01 7.25899456e-17)	3
1.2143685       	p               	2.97652950e-03	(6.21875000e-01 2.03125000e-01 2.85105016e-20)	4	1.85396524e+01	(9.15625000e-01 9.96875000e-01 7.25899456e-17)	3
1.2431641       	mag(U)          	1.10420933e-02	(6.00000000e-01 3.12500000e-03 -4.33680869e-20)	4	3.36611298e+00	(6.53125000e-01 2.09375000e-01 2.16840434e-20)	4
1.2431641       	rho             	2.26205667e-02	(6.21875000e-01 2.03125000e-01 2.85105016e-20)	4	9.96132650e+00	(9.09375000e-01 9.96875000e-01 2.23442623e-16)	3
1.2431641       	p               	6.85557072e-03	(6.21875000e-01 2.03125000e-01 2.85105016e-20)	4	1.89356591e+01	(9.09375000e-01 9.96875000e-01 2.23442623e-16)	3
1.2722382       	mag(U)          	1.12630407e-02	(5.96875000e-01 0.00000000e+00 2.12503626e-18)	4	3.41060625e+00	(6.40625000e-01 2.09375000e-01 7.35215563e-17)	4
1.2722382       	rho             	3.10675185e-02	(6.34375000e-01 2.03125000e-01 -1.26490253e-20)	4	1.00452968e+01	(9.03125000e-01 9.96875000e-01 -1.45909921e-16)	3
1.2722382       	p               	1.54705231e-02	(6.15625000e-01 2.03125000e-01 3.08596063e-19)	4	1.92728068e+01	(9.03125000e-01 9.96875000e-01 -1.45909921e-16)	3
1.3014574       	mag(U)          	1.02955566e-02	(5.96875000e-01 0.00000000e+00 2.12503626e-18)	4	3.39679199e+00	(6.46875000e-01 2.15625000e-01 -3.26003531e-18)	4
1.3014574       	rho             	1.50776361e-02	(6.34375000e-01 2.03125000e-01 -1.26490253e-20)	4	1.00417068e+01	(8.96875000e-01 9.96875000e-01 7.37845757e-17)	3
1.3014574       	p               	7.69640615e-03	(6.34375000e-01 2.03125000e-01 -1.26490253e-20)	4	1.94773378e+01	(8.96875000e-01 9.96875000e-01 7.37845757e-17)	3
1.3305061       	mag(U)          	1.12800157e-02	(5.96875000e-01 0.00000000e+00 2.12503626e-18)	4	3.31163163e+00	(6.84375000e-01 2.15625000e-01 2.16840434e-20)	4
1.3305061       	rho             	1.15162672e-02	(6.28125000e-01 2.03125000e-01 1.73110947e-18)	4	9.84790780e+00	(8.90625000e-01 9.96875000e-01 7.24182802e-17)	3
1.3305061       	p               	3.99686041e-03	(6.28125000e-01 2.03125000e-01 1.73110947e-18)	4	1.91815109e+01	(8.90625000e-01 9.96875000e-01 7.24182802e-17)	3
1.3594179       	mag(U)          	1.09320309e-02	(5.96875000e-01 0.00000000e+00 2.12503626e-18)	4	3.35470949e+00	(6.59375000e-01 2.09375000e-01 1.78291024e-19)	4
1.3594179       	rho             	2.14069706e-02	(6.21875000e-01 2.03125000e-01 2.85105016e-20)	4	9.79476345e+00	(8.84375000e-01 9.96875000e-01 -7.54970128e-17)	3
1.3594179       	p               	6.55875433e-03	(6.21875000e-01 2.03125000e-01 2.85105016e-20)	4	1.89877081e+01	(8.84375000e-01 9.96875000e-01 -7.54970128e-17)	3
1.3887904       	mag(U)          	1.10266485e-02	(5.96875000e-01 0.00000000e+00 2.12503626e-18)	4	3.42080329e+00	(6.53125000e-01 2.15625000e-01 2.47318562e-18)	4
1.3887904       	rho             	3.35922549e-02	(6.21875000e-01 2.03125000e-01 2.85105016e-20)	4	9.48900564e+00	(8.84375000e-01 9.96875000e-01 -7.54970128e-17)	3
1.3887904       	p               	1.09365428e-02	(6.21875000e-01 2.03125000e-01 2.85105016e-20)	4	1.86888077e+01	(8.84375000e-01 9.96875000e-01 -7.54970128e-17)	3
1.4182176       	mag(U)          	1.10886716e-02	(5.96875000e-01 0.00000000e+00 2.12503626e-18)	4	3.40613985e+00	(6.46875000e-01 2.09375000e-01 -7.70520398e-17)	4
1.4182176       	rho             	3.01476691e-02	(6.40625000e-01 2.03125000e-01 7.52570829e-17)	4	9.43281805e+00	(8.78125000e-01 9.96875000e-01 1.51835085e-16)	3
1.4182176       	p               	1.48210454e-02	(6.15625000e-01 2.03125000e-01 3.08596063e-19)	4	1.87366778e+01	(8.78125000e-01 9.96875000e-01 1.51835085e-16)	3
1.4475918       	mag(U)          	1.08770480e-02	(5.96875000e-01 0.00000000e+00 2.12503626e-18)	4	3.36711391e+00	(6.28125000e-01 2.09375000e-01 -2.74503928e-18)	4
1.4475918       	rho             	2.14739077e-02	(6.28125000e-01 2.03125000e-01 1.73110947e-18)	4	9.31452974e+00	(8.71875000e-01 9.96875000e-01 7.66095247e-17)	3
1.4475918       	p               	1.24055442e-02	(6.28125000e-01 2.03125000e-01 1.73110947e-18)	4	1.86583152e+01	(8.71875000e-01 9.96875000e-01 7.66095247e-17)	3
1.4769317       	mag(U)          	1.10503111e-02	(6.00000000e-01 3.12500000e-03 -4.33680869e-20)	4	3.45570526e+00	(6.65625000e-01 2.09375000e-01 2.02384406e-19)	4
1.4769317       	rho             	1.67380338e-02	(6.28125000e-01 2.03125000e-01 1.73110947e-18)	4	8.83392253e+00	(8.65625000e-01 9.96875000e-01 1.08018661e-19)	3
1.4769317       	p               	3.56810839e-03	(6.21875000e-01 2.03125000e-01 2.85105016e-20)	4	1.77596756e+01	(8.65625000e-01 9.96875000e-01 1.08018661e-19)	3
1.5064672       	mag(U)          	1.12201808e-02	(5.96875000e-01 0.00000000e+00 2.12503626e-18)	4	3.42387365e+00	(6.71875000e-01 2.09375000e-01 -9.93249657e-19)	4
1.5064672       	rho             	1.72556973e-02	(6.21875000e-01 2.03125000e-01 2.85105016e-20)	4	8.33165691e+00	(8.71875000e-01 9.84375000e-01 1.21430643e-18)	3
1.5064672       	p               	3.04704222e-03	(6.21875000e-01 2.03125000e-01 2.85105016e-20)	4	1.69741346e+01	(8.59375000e-01 9.96875000e-01 7.67319994e-17)	3
1.5358619       	mag(U)          	1.09500109e-02	(5.96875000e-01 0.00000000e+00 2.12503626e-18)	4	3.31944189e+00	(6.40625000e-01 2.09375000e-01 7.35215563e-17)	4
1.5358619       	rho             	3.05830220e-02	(6.21875000e-01 2.03125000e-01 2.85105016e-20)	4	8.24039827e+00	(8.71875000e-01 9.78125000e-01 9.69357053e-19)	3
1.5358619       	p               	1.11094605e-02	(6.21875000e-01 2.03125000e-01 2.85105016e-20)	4	1.62452843e+01	(8.59375000e-01 9.96875000e-01 7.67319994e-17)	3
1.5654041       	mag(U)          	1.07490711e-02	(6.00000000e-01 3.12500000e-03 -4.33680869e-20)	4	3.37266373e+00	(6.40625000e-01 2.15625000e-01 -2.61854902e-18)	4
1.5654041       	rho             	2.33093312e-02	(6.34375000e-01 2.03125000e-01 -1.26490253e-20)	4	8.19609829e+00	(8.65625000e-01 9.78125000e-01 7.25949650e-17)	3
1.5654041       	p               	1.34463251e-02	(6.34375000e-01 2.03125000e-01 -1.26490253e-20)	4	1.55616583e+01	(8.53125000e-01 9.90625000e-01 -7.24532156e-17)	3
1.5950228       	mag(U)          	1.10089285e-02	(5.96875000e-01 0.00000000e+00 2.12503626e-18)	4	3.33114693e+00	(6.90625000e-01 2.09375000e-01 -3.45740026e-19)	4
1.5950228       	rho             	1.12640831e-02	(6.28125000e-01 2.03125000e-01 1.73110947e-18)	4	8.13207974e+00	(8.65625000e-01 9.71875000e-01 -7.44579858e-17)	3
1.5950228       	p               	3.99873022e-03	(6.28125000e-01 2.03125000e-01 1.73110947e-18)	4	1.49105639e+01	(8.46875000e-01 9.90625000e-01 7.33970738e-17)	3
1.6246884       	mag(U)          	1.08869214e-02	(6.00000000e-01 3.12500000e-03 -4.33680869e-20)	4	3.28055579e+00	(6.71875000e-01 2.09375000e-01 -9.93249657e-19)	4
1.6246884       	rho             	1.49554012e-02	(6.28125000e-01 2.00000000e-01 -3.32488666e-19)	4	8.03316136e+00	(8.65625000e-01 9.71875000e-01 -7.44579858e-17)	3
1.6246884       	p               	5.06258628e-03	(6.28125000e-01 2.03125000e-01 1.73110947e-18)	4	1.46236601e+01	(8.40625000e-01 9.84375000e-01 1.37131497e-19)	3
1.654236        	mag(U)          	1.08164606e-02	(6.00000000e-01 3.12500000e-03 -4.33680869e-20)	4	3.31732571e+00	(6.46875000e-01 2.09375000e-01 -7.70520398e-17)	4
1.654236        	rho             	2.41752883e-02	(6.21875000e-01 2.03125000e-01 2.85105016e-20)	4	7.92873751e+00	(8.59375000e-01 9.71875000e-01 -7.44118068e-17)	3
1.654236        	p               	7.25874450e-03	(6.21875000e-01 2.03125000e-01 2.85105016e-20)	4	1.42057588e+01	(8.59375000e-01 9.71875000e-01 -7.44118068e-17)	3
1.6841073       	mag(U)          	1.05687175e-02	(6.00000000e-01 3.12500000e-03 -4.33680869e-20)	4	3.37713080e+00	(6.53125000e-01 2.15625000e-01 2.47318562e-18)	4
1.6841073       	rho             	4.10865894e-02	(6.40625000e-01 2.03125000e-01 7.52570829e-17)	4	7.75347520e+00	(8.59375000e-01 9.65625000e-01 7.32495019e-17)	3
1.6841073       	p               	1.25302100e-02	(6.15625000e-01 2.03125000e-01 3.08596063e-19)	4	1.40623983e+01	(8.28125000e-01 9.78125000e-01 1.50005996e-16)	3
1.7141044       	mag(U)          	1.08135539e-02	(6.00000000e-01 3.12500000e-03 -4.33680869e-20)	4	3.29905090e+00	(6.46875000e-01 2.09375000e-01 -7.70520398e-17)	4
1.7141044       	rho             	2.45840656e-02	(6.40625000e-01 2.03125000e-01 7.52570829e-17)	4	7.50182308e+00	(8.59375000e-01 9.59375000e-01 -7.41277056e-17)	3
1.7141044       	p               	1.84899808e-02	(6.34375000e-01 2.03125000e-01 -1.26490253e-20)	4	1.41482485e+01	(8.21875000e-01 9.78125000e-01 -7.69476352e-17)	3