# Field minima and maxima
# Time          	field           	min             	location(min)   	processor       	max             	location(max)   	processor       
0.02            	mag(U)          	1.66566716e-14	(6.00000000e-01 3.12500000e-03 -4.33680869e-20)	9	3.13728453e+00	(6.40625000e-01 2.09375000e-01 7.35215563e-17)	9
0.02            	rho             	7.53896020e-01	(6.15625000e-01 2.03125000e-01 3.08596063e-19)	9	9.14292387e+00	(5.96875000e-01 1.34375000e-01 -2.15234209e-19)	9
0.02            	p               	6.57206783e-01	(6.21875000e-01 2.03125000e-01 2.85105016e-20)	9	2.71834612e+01	(5.96875000e-01 9.06250000e-02 -2.41335372e-19)	9
0.04            	mag(U)          	6.23274832e-16	(6.00000000e-01 9.37500000e-03 7.51713506e-19)	9	3.16994193e+00	(6.90625000e-01 2.28125000e-01 -1.90542508e-17)	9
0.04            	rho             	3.99587870e-01	(6.21875000e-01 2.03125000e-01 2.85105016e-20)	9	6.28789593e+00	(5.96875000e-01 9.68750000e-02 3.56240725e-18)	9
0.04            	p               	4.36722962e-01	(6.21875000e-01 2.03125000e-01 2.85105016e-20)	9	1.76289908e+01	(5.71875000e-01 1.03125000e-01 -2.43784866e-18)	9
0.06            	mag(U)          	1.18701002e-15	(6.00000000e-01 2.81250000e-02 1.01192203e-19)	9	3.16924074e+00	(7.46875000e-01 2.59375000e-01 -3.62709798e-17)	9
0.06            	rho             	2.41609467e-01	(6.15625000e-01 2.03125000e-01 3.08596063e-19)	9	6.31334640e+00	(6.00000000e-01 5.93750000e-02 8.23993651e-19)	9
0.06            	p               	2.52957149e-01	(6.15625000e-01 2.03125000e-01 3.08596063e-19)	9	1.71002509e+01	(5.96875000e-01 5.93750000e-02 -3.18634972e-19)	9
0.08            	mag(U)          	4.81795907e-11	(6.00000000e-01 3.12500000e-03 -4.33680869e-20)	9	3.16040875e+00	(8.03125000e-01 2.84375000e-01 3.62932662e-17)	12
0.08            	rho             	1.29820916e-01	(6.21875000e-01 2.03125000e-01 2.85105016e-20)	9	6.39386800e+00	(5.40625000e-01 3.43750000e-02 -5.07366461e-19)	9
0.08            	p               	1.12376951e-01	(6.21875000e-01 2.03125000e-01 2.85105016e-20)	9	1.73230864e+01	(5.96875000e-01 2.18750000e-02 3.80334107e-18)	9
0.1             	mag(U)          	1.32614357e-04	(5.96875000e-01 0.00000000e+00 2.12503626e-18)	9	3.24240947e+00	(6.46875000e-01 2.09375000e-01 -7.70520398e-17)	9
0.1             	rho             	9.22727978e-02	(6.21875000e-01 2.03125000e-01 2.85105016e-20)	9	6.37343892e+00	(5.40625000e-01 3.12500000e-03 3.01960344e-18)	9
0.1             	p               	6.53656425e-02	(6.15625000e-01 2.03125000e-01 3.08596063e-19)	9	1.72973772e+01	(5.53125000e-01 3.12500000e-03 -1.68613516e-18)	9
0.12            	mag(U)          	2.78664889e-03	(5.96875000e-01 0.00000000e+00 2.12503626e-18)	9	3.30468997e+00	(6.40625000e-01 2.09375000e-01 7.35215563e-17)	9
0.12            	rho             	8.52085954e-02	(6.21875000e-01 2.03125000e-01 2.85105016e-20)	9	6.21785052e+00	(5.09375000e-01 3.12500000e-03 2.25765025e-18)	9
0.12            	p               	7.12232149e-02	(6.21875000e-01 2.03125000e-01 2.85105016e-20)	9	1.68961925e+01	(5.09375000e-01 3.12500000e-03 2.25765025e-18)	9
0.14            	mag(U)          	6.59686463e-03	(5.96875000e-01 0.00000000e+00 2.12503626e-18)	9	3.38386023e+00	(6.53125000e-01 2.09375000e-01 2.16840434e-20)	9
0.14            	rho             	5.93931181e-02	(6.28125000e-01 2.03125000e-01 1.73110947e-18)	9	6.05018277e+00	(4.96875000e-01 8.43750000e-02 -1.17896947e-18)	9
0.14            	p               	5.03309525e-02	(6.28125000e-01 2.03125000e-01 1.73110947e-18)	9	1.55248283e+01	(4.90625000e-01 3.43750000e-02 2.16840434e-20)	9
0.16            	mag(U)          	8.80640779e-03	(6.00000000e-01 3.12500000e-03 -4.33680869e-20)	9	3.51533884e+00	(6.65625000e-01 2.09375000e-01 2.02384406e-19)	9
0.16            	rho             	2.80927319e-02	(6.21875000e-01 2.03125000e-01 2.85105016e-20)	9	6.00758623e+00	(4.84375000e-01 8.43750000e-02 1.69918574e-18)	9
0.16            	p               	1.13185278e-02	(6.21875000e-01 2.03125000e-01 2.85105016e-20)	9	1.47121023e+01	(4.78125000e-01 4.06250000e-02 -1.72107056e-18)	9
0.18            	mag(U)          	8.72239069e-03	(6.00000000e-01 3.12500000e-03 -4.33680869e-20)	9	3.51115353e+00	(6.59375000e-01 2.09375000e-01 1.78291024e-19)	9
0.18            	rho             	2.53704653e-02	(6.21875000e-01 2.00000000e-01 4.62592927e-19)	9	5.95705698e+00	(4.65625000e-01 3.12500000e-03 3.56782826e-19)	9
0.18            	p               	1.21138413e-02	(6.21875000e-01 2.03125000e-01 2.85105016e-20)	9	1.41608158e+01	(4.65625000e-01 3.12500000e-03 3.56782826e-19)	9
0.2             	mag(U)          	8.12023350e-03	(5.96875000e-01 0.00000000e+00 2.12503626e-18)	9	3.53305252e+00	(6.65625000e-01 2.09375000e-01 2.02384406e-19)	9
0.2             	rho             	3.49161107e-02	(6.34375000e-01 2.03125000e-01 -1.26490253e-20)	9	5.89258617e+00	(4.59375000e-01 5.31250000e-02 -2.04191409e-19)	9
0.2             	p               	2.77792432e-02	(6.34375000e-01 2.03125000e-01 -1.26490253e-20)	9	1.36437796e+01	(4.65625000e-01 4.68750000e-02 -3.02412095e-18)	9
0.22            	mag(U)          	7.41879840e-03	(5.96875000e-01 0.00000000e+00 2.12503626e-18)	9	3.64714347e+00	(6.71875000e-01 2.09375000e-01 -9.93249657e-19)	9
0.22            	rho             	2.49430426e-02	(6.21875000e-01 2.03125000e-01 2.85105016e-20)	9	5.82796646e+00	(4.53125000e-01 7.18750000e-02 -3.71841190e-19)	9
0.22            	p               	8.88259999e-03	(6.21875000e-01 2.03125000e-01 2.85105016e-20)	9	1.33091041e+01	(4.78125000e-01 9.37500000e-03 9.94454326e-19)	9
0.24            	mag(U)          	8.69380844e-03	(5.96875000e-01 0.00000000e+00 2.12503626e-18)	9	3.56695748e+00	(6.65625000e-01 2.15625000e-01 1.16451344e-20)	9
0.24            	rho             	1.93344022e-02	(6.28125000e-01 2.03125000e-01 1.73110947e-18)	9	5.79315409e+00	(4.53125000e-01 9.68750000e-02 -5.36077741e-20)	9
0.24            	p               	8.75982163e-03	(6.21875000e-01 2.03125000e-01 2.85105016e-20)	9	1.30572757e+01	(4.84375000e-01 3.12500000e-03 -4.92910432e-20)	9
0.26            	mag(U)          	8.96685419e-03	(5.96875000e-01 0.00000000e+00 2.12503626e-18)	9	3.53793920e+00	(6.90625000e-01 2.15625000e-01 4.13201495e-19)	9
0.26            	rho             	2.96920737e-02	(6.34375000e-01 2.03125000e-01 -1.26490253e-20)	9	5.76565119e+00	(4.46875000e-01 1.03125000e-01 9.81403744e-19)	9
0.26            	p               	2.26376927e-02	(6.34375000e-01 2.03125000e-01 -1.26490253e-20)	9	1.28651800e+01	(4.84375000e-01 3.12500000e-03 -4.92910432e-20)	9
0.28            	mag(U)          	8.39968740e-03	(5.96875000e-01 0.00000000e+00 2.12503626e-18)	9	3.61800109e+00	(6.71875000e-01 2.09375000e-01 -9.93249657e-19)	9
0.28            	rho             	2.34167771e-02	(6.21875000e-01 2.03125000e-01 2.85105016e-20)	9	5.73335806e+00	(4.40625000e-01 1.03125000e-01 -3.64753720e-18)	9
0.28            	p               	8.08768116e-03	(6.21875000e-01 2.03125000e-01 2.85105016e-20)	9	1.27626530e+01	(5.21875000e-01 3.12500000e-03 4.86786698e-19)	9
0.3             	mag(U)          	8.03207911e-03	(5.96875000e-01 0.00000000e+00 2.12503626e-18)	9	3.53177492e+00	(6.84375000e-01 2.15625000e-01 2.16840434e-20)	9
0.3             	rho             	1.45652393e-02	(6.28125000e-01 2.03125000e-01 1.73110947e-18)	9	5.70746915e+00	(4.34375000e-01 1.03125000e-01 1.20727920e-18)	9
0.3             	p               	7.17111159e-03	(6.28125000e-01 2.03125000e-01 1.73110947e-18)	9	1.27040173e+01	(5.21875000e-01 3.12500000e-03 4.86786698e-19)	9
0.32            	mag(U)          	9.59400204e-03	(5.96875000e-01 0.00000000e+00 2.12503626e-18)	9	3.57946977e+00	(6.71875000e-01 2.09375000e-01 -9.93249657e-19)	9
0.32            	rho             	2.96664109e-02	(6.28125000e-01 2.03125000e-01 1.73110947e-18)	9	5.72076133e+00	(4.46875000e-01 3.12500000e-03 2.60911245e-19)	9
0.32            	p               	2.19084316e-02	(6.28125000e-01 2.03125000e-01 1.73110947e-18)	9	1.26511757e+01	(5.59375000e-01 3.12500000e-03 2.66372412e-18)	9
0.34            	mag(U)          	9.97784476e-03	(6.00000000e-01 3.12500000e-03 -4.33680869e-20)	9	3.54388713e+00	(6.53125000e-01 2.15625000e-01 2.47318562e-18)	9
0.34            	rho             	2.63569600e-02	(6.21875000e-01 2.03125000e-01 2.85105016e-20)	9	5.70335253e+00	(4.28125000e-01 3.12500000e-03 4.86786698e-19)	9
0.34            	p               	1.00166362e-02	(6.21875000e-01 2.03125000e-01 2.85105016e-20)	9	1.26659620e+01	(5.53125000e-01 3.12500000e-03 -1.68613516e-18)	9
0.36            	mag(U)          	1.01178654e-02	(6.00000000e-01 3.12500000e-03 -4.33680869e-20)	9	3.61249322e+00	(6.84375000e-01 2.15625000e-01 2.16840434e-20)	9
0.36            	rho             	1.22487370e-02	(6.28125000e-01 2.03125000e-01 1.73110947e-18)	9	5.68863362e+00	(4.65625000e-01 3.12500000e-03 3.56782826e-19)	9
0.36            	p               	4.34106059e-03	(6.28125000e-01 2.03125000e-01 1.73110947e-18)	9	1.25909263e+01	(5.96875000e-01 3.12500000e-03 3.08596063e-19)	9
0.38            	mag(U)          	8.82891820e-03	(5.96875000e-01 0.00000000e+00 2.12503626e-18)	9	3.58951680e+00	(6.71875000e-01 2.09375000e-01 -9.93249657e-19)	9
0.38            	rho             	2.97344073e-02	(6.34375000e-01 2.00000000e-01 4.62592927e-19)	9	5.68819195e+00	(4.40625000e-01 3.12500000e-03 -1.90839660e-19)	9
0.38            	p               	2.05325281e-02	(6.15625000e-01 2.03125000e-01 3.08596063e-19)	9	1.26752409e+01	(5.71875000e-01 3.12500000e-03 2.53020663e-18)	9
0.4             	mag(U)          	4.94087242e-03	(5.96875000e-01 0.00000000e+00 2.12503626e-18)	9	3.55702127e+00	(6.46875000e-01 2.09375000e-01 -7.70520398e-17)	9
0.4             	rho             	2.41325740e-02	(6.21875000e-01 2.03125000e-01 2.85105016e-20)	9	5.69286846e+00	(4.71875000e-01 3.12500000e-03 -3.42888976e-18)	9
0.4             	p               	9.29544011e-03	(6.21875000e-01 2.03125000e-01 2.85105016e-20)	9	1.25222704e+01	(5.46875000e-01 9.37500000e-03 2.07403860e-19)	9
0.42            	mag(U)          	1.02245034e-02	(6.00000000e-01 3.12500000e-03 -4.33680869e-20)	9	3.61078107e+00	(6.71875000e-01 2.09375000e-01 -9.93249657e-19)	9
0.42            	rho             	1.33143787e-02	(6.28125000e-01 2.03125000e-01 1.73110947e-18)	9	5.69246465e+00	(4.53125000e-01 3.12500000e-03 -3.41784696e-18)	9
0.42            	p               	4.46703332e-03	(6.28125000e-01 2.03125000e-01 1.73110947e-18)	9	1.27366617e+01	(5.96875000e-01 3.12500000e-03 3.08596063e-19)	9
0.44            	mag(U)          	6.58409958e-03	(5.96875000e-01 0.00000000e+00 2.12503626e-18)	9	3.59512342e+00	(6.96875000e-01 2.15625000e-01 -2.91871240e-18)	9
0.44            	rho             	2.89107305e-02	(6.40625000e-01 2.03125000e-01 7.52570829e-17)	9	5.74594913e+00	(4.71875000e-01 3.12500000e-03 -3.42888976e-18)	9
0.44            	p               	1.77716894e-02	(6.15625000e-01 2.03125000e-01 3.08596063e-19)	9	1.27351967e+01	(5.65625000e-01 3.12500000e-03 2.66372412e-18)	9
0.46            	mag(U)          	1.07547465e-02	(6.00000000e-01 3.12500000e-03 -4.33680869e-20)	9	3.58469036e+00	(6.71875000e-01 2.09375000e-01 -9.93249657e-19)	9
0.46            	rho             	2.11334161e-02	(6.21875000e-01 2.03125000e-01 2.85105016e-20)	9	5.71306429e+00	(4.90625000e-01 7.18750000e-02 2.16840434e-20)	9
0.46            	p               	7.58782302e-03	(6.21875000e-01 2.03125000e-01 2.85105016e-20)	9	1.27629531e+01	(5.96875000e-01 3.12500000e-03 3.08596063e-19)	9
0.48            	mag(U)          	1.06158752e-02	(6.00000000e-01 3.12500000e-03 -4.33680869e-20)	9	3.68782297e+00	(6.71875000e-01 2.09375000e-01 -9.93249657e-19)	9
0.48            	rho             	1.30572050e-02	(6.28125000e-01 2.03125000e-01 1.73110947e-18)	9	5.77346085e+00	(4.59375000e-01 3.12500000e-03 -4.32134877e-18)	9
0.48            	p               	4.76302723e-03	(6.28125000e-01 2.03125000e-01 1.73110947e-18)	9	1.27120672e+01	(5.59375000e-01 3.12500000e-03 2.66372412e-18)	9
0.5             	mag(U)          	1.09805804e-02	(6.00000000e-01 3.12500000e-03 -4.33680869e-20)	9	3.60510598e+00	(6.96875000e-01 2.15625000e-01 -2.91871240e-18)	9
0.5             	rho             	2.90885472e-02	(6.40625000e-01 2.03125000e-01 7.52570829e-17)	9	5.77126712e+00	(4.84375000e-01 4.06250000e-02 -3.13454895e-18)	9
0.5             	p               	1.54215855e-02	(6.15625000e-01 2.03125000e-01 3.08596063e-19)	9	1.27421990e+01	(5.96875000e-01 3.12500000e-03 3.08596063e-19)	9
0.52            	mag(U)          	8.13412256e-03	(5.96875000e-01 0.00000000e+00 2.12503626e-18)	9	3.56701313e+00	(6.71875000e-01 2.09375000e-01 -9.93249657e-19)	9
0.52            	rho             	2.03482583e-02	(6.21875000e-01 2.03125000e-01 2.85105016e-20)	9	5.77988188e+00	(4.53125000e-01 3.12500000e-03 -3.41784696e-18)	9
0.52            	p               	7.20647722e-03	(6.21875000e-01 2.03125000e-01 2.85105016e-20)	9	1.26479015e+01	(5.59375000e-01 3.12500000e-03 2.66372412e-18)	9
0.54            	mag(U)          	1.10438265e-02	(6.00000000e-01 3.12500000e-03 -4.33680869e-20)	9	3.69257622e+00	(6.71875000e-01 2.09375000e-01 -9.93249657e-19)	9
0.54            	rho             	1.21668688e-02	(6.28125000e-01 2.03125000e-01 1.73110947e-18)	9	5.84134524e+00	(4.71875000e-01 3.12500000e-03 -3.42888976e-18)	9
0.54            	p               	4.84662632e-03	(6.28125000e-01 2.03125000e-01 1.73110947e-18)	9	1.26429056e+01	(5.96875000e-01 3.12500000e-03 3.08596063e-19)	9
0.56            	mag(U)          	5.87868680e-03	(5.96875000e-01 0.00000000e+00 2.12503626e-18)	9	3.61215184e+00	(6.96875000e-01 2.15625000e-01 -2.91871240e-18)	9
0.56            	rho             	3.01632566e-02	(6.40625000e-01 2.03125000e-01 7.52570829e-17)	9	5.83470178e+00	(5.03125000e-01 3.12500000e-03 5.56155559e-20)	9
0.56            	p               	1.35975596e-02	(6.15625000e-01 2.03125000e-01 3.08596063e-19)	9	1.25089743e+01	(5.65625000e-01 3.12500000e-03 2.66372412e-18)	9
0.58            	mag(U)          	1.11566124e-02	(6.00000000e-01 3.12500000e-03 -4.33680869e-20)	9	3.59387947e+00	(6.59375000e-01 2.09375000e-01 1.78291024e-19)	9
0.58            	rho             	1.82177284e-02	(6.21875000e-01 2.03125000e-01 2.85105016e-20)	9	5.84482808e+00	(4.71875000e-01 3.12500000e-03 -3.42888976e-18)	9
0.58            	p               	6.07930137e-03	(6.21875000e-01 2.03125000e-01 2.85105016e-20)	9	1.25660731e+01	(5.53125000e-01 3.12500000e-03 -1.68613516e-18)	9
0.6             	mag(U)          	1.15383102e-02	(6.00000000e-01 3.12500000e-03 -4.33680869e-20)	9	3.65171818e+00	(6.78125000e-01 2.09375000e-01 -1.63818933e-17)	9
0.6             	rho             	1.44136122e-02	(6.28125000e-01 2.03125000e-01 1.73110947e-18)	9	5.86496282e+00	(5.03125000e-01 3.12500000e-03 5.56155559e-20)	9
0.6             	p               	6.92418508e-03	(6.28125000e-01 2.03125000e-01 1.73110947e-18)	9	1.26539871e+01	(5.96875000e-01 3.12500000e-03 3.08596063e-19)	9
0.62            	mag(U)          	8.70824082e-03	(5.96875000e-01 0.00000000e+00 2.12503626e-18)	9	3.61377009e+00	(6.90625000e-01 2.15625000e-01 4.13201495e-19)	9
0.62            	rho             	3.34281908e-02	(6.40625000e-01 2.03125000e-01 7.52570829e-17)	9	6.14383432e+00	(1.32187500e+00 9.96875000e-01 7.14368765e-19)	15
0.62            	p               	1.43159584e-02	(6.15625000e-01 2.03125000e-01 3.08596063e-19)	9	1.25265270e+01	(5.59375000e-01 3.12500000e-03 2.66372412e-18)	9
0.64            	mag(U)          	1.16616582e-02	(6.00000000e-01 3.12500000e-03 -4.33680869e-20)	9	3.68538202e+00	(6.78125000e-01 2.09375000e-01 -1.63818933e-17)	9
0.64            	rho             	1.29292690e-02	(6.28125000e-01 2.03125000e-01 1.73110947e-18)	9	6.44936937e+00	(1.27187500e+00 9.96875000e-01 -1.51629087e-16)	15
0.64            	p               	3.73667098e-03	(6.21875000e-01 2.03125000e-01 2.85105016e-20)	9	1.24741499e+01	(5.96875000e-01 3.12500000e-03 3.08596063e-19)	9
0.66            	mag(U)          	1.18114457e-02	(6.00000000e-01 3.12500000e-03 -4.33680869e-20)	9	3.64182758e+00	(6.71875000e-01 2.09375000e-01 -9.93249657e-19)	9
0.66            	rho             	1.76413671e-02	(6.28125000e-01 2.03125000e-01 1.73110947e-18)	9	6.69682002e+00	(1.23437500e+00 9.96875000e-01 -1.51721445e-16)	15
0.66            	p               	1.12922276e-02	(6.28125000e-01 2.03125000e-01 1.73110947e-18)	9	1.25837418e+01	(5.96875000e-01 3.12500000e-03 3.08596063e-19)	9
0.68            	mag(U)          	1.00769431e-02	(5.96875000e-01 0.00000000e+00 2.12503626e-18)	9	3.56536257e+00	(6.90625000e-01 2.15625000e-01 4.13201495e-19)	9
0.68            	rho             	3.39606583e-02	(6.21875000e-01 2.03125000e-01 2.85105016e-20)	9	6.92491574e+00	(1.20312500e+00 9.96875000e-01 -7.36859936e-17)	15
0.68            	p               	1.54861168e-02	(6.15625000e-01 2.03125000e-01 3.08596063e-19)	9	1.24846642e+01	(5.59375000e-01 3.12500000e-03 2.66372412e-18)	9
0.7             	mag(U)          	1.18941654e-02	(6.00000000e-01 3.12500000e-03 -4.33680869e-20)	9	3.70306683e+00	(6.78125000e-01 2.09375000e-01 -1.63818933e-17)	9
0.7             	rho             	1.48320361e-02	(6.28125000e-01 2.03125000e-01 1.73110947e-18)	9	7.12839075e+00	(1.17812500e+00 9.96875000e-01 7.34854162e-17)	15
0.7             	p               	3.70898710e-03	(6.21875000e-01 2.03125000e-01 2.85105016e-20)	9	1.24548293e+01	(5.96875000e-01 3.12500000e-03 3.08596063e-19)	9
0.72            	mag(U)          	1.15625540e-02	(5.96875000e-01 0.00000000e+00 2.12503626e-18)	9	3.56066921e+00	(6.90625000e-01 2.15625000e-01 4.13201495e-19)	9
0.72            	rho             	1.39342644e-02	(6.34375000e-01 2.03125000e-01 -1.26490253e-20)	9	7.33421025e+00	(1.15312500e+00 9.96875000e-01 7.51056962e-17)	15
0.72            	p               	9.61650316e-03	(6.34375000e-01 2.03125000e-01 -1.26490253e-20)	9	1.25107653e+01	(5.96875000e-01 3.12500000e-03 3.08596063e-19)	9
0.74            	mag(U)          	1.13619082e-02	(5.96875000e-01 0.00000000e+00 2.12503626e-18)	9	3.60691905e+00	(6.78125000e-01 2.09375000e-01 -1.63818933e-17)	9
0.74            	rho             	2.84330418e-02	(6.21875000e-01 2.03125000e-01 2.85105016e-20)	9	7.50713539e+00	(1.13437500e+00 9.96875000e-01 7.17426616e-17)	15
0.74            	p               	1.24557020e-02	(6.21875000e-01 2.03125000e-01 2.85105016e-20)	9	1.24134505e+01	(5.53125000e-01 3.12500000e-03 -1.68613516e-18)	9
0.76            	mag(U)          	1.19861761e-02	(6.00000000e-01 3.12500000e-03 -4.33680869e-20)	9	3.74485669e+00	(6.78125000e-01 2.09375000e-01 -1.63818933e-17)	9
0.76            	rho             	1.55398590e-02	(6.21875000e-01 2.00000000e-01 4.62592927e-19)	9	7.66261810e+00	(1.11562500e+00 9.96875000e-01 7.35747625e-17)	15
0.76            	p               	3.99442071e-03	(6.21875000e-01 2.03125000e-01 2.85105016e-20)	9	1.23828310e+01	(5.96875000e-01 3.12500000e-03 3.08596063e-19)	9
0.78            	mag(U)          	1.20484858e-02	(5.96875000e-01 0.00000000e+00 2.12503626e-18)	9	3.57898081e+00	(6.78125000e-01 2.15625000e-01 2.56755137e-18)	9
0.78            	rho             	1.30254268e-02	(6.34375000e-01 2.03125000e-01 -1.26490253e-20)	9	7.80575569e+00	(1.09687500e+00 9.96875000e-01 7.51056962e-17)	15
0.78            	p               	7.73726515e-03	(6.34375000e-01 2.03125000e-01 -1.26490253e-20)	9	1.26962389e+01	(1.09687500e+00 9.96875000e-01 7.51056962e-17)	15
0.8             	mag(U)          	1.00957187e-02	(5.96875000e-01 0.00000000e+00 2.12503626e-18)	9	3.56219134e+00	(6.59375000e-01 2.15625000e-01 2.61373035e-18)	9
0.8             	rho             	2.48076273e-02	(6.21875000e-01 2.03125000e-01 2.85105016e-20)	9	7.92258509e+00	(1.08437500e+00 9.96875000e-01 7.34854162e-17)	15
0.8             	p               	9.66840253e-03	(6.21875000e-01 2.03125000e-01 2.85105016e-20)	9	1.30244206e+01	(1.08437500e+00 9.96875000e-01 7.34854162e-17)	15
0.82            	mag(U)          	1.19593383e-02	(6.00000000e-01 3.12500000e-03 -4.33680869e-20)	9	3.63162987e+00	(6.71875000e-01 2.09375000e-01 -9.93249657e-19)	9
0.82            	rho             	1.64647841e-02	(6.21875000e-01 2.03125000e-01 2.85105016e-20)	9	8.05570482e+00	(1.07187500e+00 9.96875000e-01 2.96500784e-16)	15
0.82            	p               	4.66745161e-03	(6.21875000e-01 2.03125000e-01 2.85105016e-20)	9	1.34179866e+01	(1.07187500e+00 9.96875000e-01 2.96500784e-16)	15
0.84            	mag(U)          	1.15051596e-02	(5.96875000e-01 0.00000000e+00 2.12503626e-18)	9	3.53860494e+00	(6.90625000e-01 2.15625000e-01 4.13201495e-19)	9
0.84            	rho             	1.40477201e-02	(6.28125000e-01 2.03125000e-01 1.73110947e-18)	9	8.15166071e+00	(1.05937500e+00 9.96875000e-01 7.51056962e-17)	15
0.84            	p               	7.25207817e-03	(6.28125000e-01 2.03125000e-01 1.73110947e-18)	9	1.37009315e+01	(1.05937500e+00 9.96875000e-01 7.51056962e-17)	15
0.86            	mag(U)          	1.15782333e-02	(5.96875000e-01 0.00000000e+00 2.12503626e-18)	9	3.52658793e+00	(6.46875000e-01 2.15625000e-01 -3.26003531e-18)	9
0.86            	rho             	3.34353661e-02	(6.40625000e-01 2.03125000e-01 7.52570829e-17)	9	8.29944585e+00	(1.04687500e+00 9.96875000e-01 7.21181168e-17)	15
0.86            	p               	1.17748641e-02	(6.15625000e-01 2.03125000e-01 3.08596063e-19)	9	1.40863468e+01	(1.04687500e+00 9.96875000e-01 7.21181168e-17)	15
0.88            	mag(U)          	1.15090037e-02	(5.96875000e-01 0.00000000e+00 2.12503626e-18)	9	3.59574016e+00	(6.71875000e-01 2.09375000e-01 -9.93249657e-19)	9
0.88            	rho             	1.37251538e-02	(6.28125000e-01 2.03125000e-01 1.73110947e-18)	9	8.42298198e+00	(1.03437500e+00 9.96875000e-01 -2.03227674e-18)	15
0.88            	p               	3.92387623e-03	(6.21875000e-01 2.03125000e-01 2.85105016e-20)	9	1.44060196e+01	(1.03437500e+00 9.96875000e-01 -2.03227674e-18)	15
0.9             	mag(U)          	1.21294512e-02	(6.00000000e-01 3.12500000e-03 -4.33680869e-20)	9	3.48077780e+00	(6.71875000e-01 2.15625000e-01 -4.55766469e-20)	9
0.9             	rho             	1.56849005e-02	(6.28125000e-01 2.03125000e-01 1.73110947e-18)	9	8.49112023e+00	(1.02187500e+00 9.96875000e-01 7.35747625e-17)	15
0.9             	p               	8.07431812e-03	(6.28125000e-01 2.03125000e-01 1.73110947e-18)	9	1.45238411e+01	(1.02187500e+00 9.96875000e-01 7.35747625e-17)	15
0.92            	mag(U)          	1.19169029e-02	(6.00000000e-01 3.12500000e-03 -4.33680869e-20)	9	3.47140393e+00	(6.96875000e-01 2.15625000e-01 -2.91871240e-18)	9
0.92            	rho             	3.12334428e-02	(6.34375000e-01 2.03125000e-01 -1.26490253e-20)	9	8.61625008e+00	(1.01562500e+00 9.96875000e-01 3.67785470e-18)	15
0.92            	p               	1.64366038e-02	(6.15625000e-01 2.03125000e-01 3.08596063e-19)	9	1.49836879e+01	(1.01562500e+00 9.96875000e-01 3.67785470e-18)	15
0.94            	mag(U)          	1.07950530e-02	(5.96875000e-01 0.00000000e+00 2.12503626e-18)	9	3.50227404e+00	(6.59375000e-01 2.15625000e-01 2.61373035e-18)	9
0.94            	rho             	1.83518772e-02	(6.21875000e-01 2.03125000e-01 2.85105016e-20)	9	8.70829805e+00	(1.00312500e+00 9.96875000e-01 1.46925055e-16)	15
0.94            	p               	4.93298627e-03	(6.21875000e-01 2.03125000e-01 2.85105016e-20)	9	1.51372865e+01	(1.00312500e+00 9.96875000e-01 1.46925055e-16)	15
0.96            	mag(U)          	1.17151448e-02	(5.96875000e-01 0.00000000e+00 2.12503626e-18)	9	3.48339003e+00	(6.84375000e-01 2.15625000e-01 2.16840434e-20)	9
0.96            	rho             	1.24448079e-02	(6.28125000e-01 2.00000000e-01 -3.32488666e-19)	9	8.83037766e+00	(9.96875000e-01 9.96875000e-01 -7.14463131e-17)	15
0.96            	p               	4.97568036e-03	(6.28125000e-01 2.03125000e-01 1.73110947e-18)	9	1.55474675e+01	(9.96875000e-01 9.96875000e-01 -7.14463131e-17)	15
0.98            	mag(U)          	1.17805485e-02	(6.00000000e-01 3.12500000e-03 -4.33680869e-20)	9	3.44946203e+00	(6.71875000e-01 2.09375000e-01 -9.93249657e-19)	9
0.98            	rho             	2.54037915e-02	(6.34375000e-01 2.03125000e-01 -1.26490253e-20)	9	8.97097371e+00	(9.90625000e-01 9.96875000e-01 7.27786771e-17)	15
0.98            	p               	1.65615115e-02	(6.34375000e-01 2.03125000e-01 -1.26490253e-20)	9	1.59883397e+01	(9.90625000e-01 9.96875000e-01 7.27786771e-17)	15
1               	mag(U)          	1.16626642e-02	(5.96875000e-01 0.00000000e+00 2.12503626e-18)	9	3.44595064e+00	(6.53125000e-01 2.15625000e-01 2.47318562e-18)	9
1               	rho             	2.78454370e-02	(6.21875000e-01 2.03125000e-01 2.85105016e-20)	9	8.91366520e+00	(9.84375000e-01 9.96875000e-01 7.47372682e-17)	15
1               	p               	1.00149766e-02	(6.21875000e-01 2.03125000e-01 2.85105016e-20)	9	1.59399679e+01	(9.84375000e-01 9.96875000e-01 7.47372682e-17)	15
1.02            	mag(U)          	1.19115827e-02	(6.00000000e-01 3.12500000e-03 -4.33680869e-20)	9	3.47915296e+00	(6.78125000e-01 2.15625000e-01 2.56755137e-18)	9
1.02            	rho             	1.32854454e-02	(6.28125000e-01 2.03125000e-01 1.73110947e-18)	9	9.09943358e+00	(9.71875000e-01 9.96875000e-01 1.47752261e-16)	15
1.02            	p               	4.01301171e-03	(6.28125000e-01 2.03125000e-01 1.73110947e-18)	9	1.62302864e+01	(9.78125000e-01 9.96875000e-01 -7.22956048e-17)	15
1.04            	mag(U)          	1.00239888e-02	(5.96875000e-01 0.00000000e+00 2.12503626e-18)	9	3.39826368e+00	(6.96875000e-01 2.15625000e-01 -2.91871240e-18)	9
1.04            	rho             	1.81397411e-02	(6.28125000e-01 2.03125000e-01 1.73110947e-18)	9	9.14405570e+00	(9.65625000e-01 9.96875000e-01 7.51056962e-17)	15
1.04            	p               	1.05407824e-02	(6.28125000e-01 2.03125000e-01 1.73110947e-18)	9	1.64278050e+01	(9.65625000e-01 9.96875000e-01 7.51056962e-17)	15
1.06            	mag(U)          	1.16641663e-02	(6.00000000e-01 3.12500000e-03 -4.33680869e-20)	9	3.42345768e+00	(6.90625000e-01 2.15625000e-01 4.13201495e-19)	9
1.06            	rho             	3.31106473e-02	(6.34375000e-01 2.03125000e-01 -1.26490253e-20)	9	9.35920812e+00	(9.59375000e-01 9.96875000e-01 -1.56948303e-18)	15
1.06            	p               	1.54732660e-02	(6.15625000e-01 2.03125000e-01 3.08596063e-19)	9	1.70226963e+01	(9.59375000e-01 9.96875000e-01 -1.56948303e-18)	15
1.08            	mag(U)          	1.15777826e-02	(6.00000000e-01 3.12500000e-03 -4.33680869e-20)	9	3.38792644e+00	(6.71875000e-01 2.15625000e-01 -4.55766469e-20)	9
1.08            	rho             	2.19502735e-02	(6.21875000e-01 2.03125000e-01 2.85105016e-20)	9	9.38477600e+00	(9.53125000e-01 9.96875000e-01 7.67319994e-17)	15
1.08            	p               	6.39883636e-03	(6.21875000e-01 2.03125000e-01 2.85105016e-20)	9	1.71475051e+01	(9.53125000e-01 9.96875000e-01 7.67319994e-17)	15
1.1             	mag(U)          	1.16981190e-02	(5.96875000e-01 0.00000000e+00 2.12503626e-18)	9	3.42632963e+00	(6.78125000e-01 2.15625000e-01 2.56755137e-18)	9
1.1             	rho             	1.17605916e-02	(6.28125000e-01 2.03125000e-01 1.73110947e-18)	9	9.55956665e+00	(9.46875000e-01 9.96875000e-01 7.46770347e-17)	15
1.1             	p               	3.12522922e-03	(6.28125000e-01 2.03125000e-01 1.73110947e-18)	9	1.75714901e+01	(9.46875000e-01 9.96875000e-01 7.46770347e-17)	15
1.12            	mag(U)          	1.15739680e-02	(6.00000000e-01 3.12500000e-03 -4.33680869e-20)	9	3.37749440e+00	(6.96875000e-01 2.15625000e-01 -2.91871240e-18)	9
1.12            	rho             	2.02776009e-02	(6.34375000e-01 2.03125000e-01 -1.26490253e-20)	9	9.55671528e+00	(9.40625000e-01 9.96875000e-01 2.16840434e-20)	15
1.12            	p               	1.37957082e-02	(6.34375000e-01 2.03125000e-01 -1.26490253e-20)	9	1.76344781e+01	(9.40625000e-01 9.96875000e-01 2.16840434e-20)	15
1.14            	mag(U)          	1.14713979e-02	(6.00000000e-01 3.12500000e-03 -4.33680869e-20)	9	3.40443547e+00	(6.71875000e-01 2.09375000e-01 -9.93249657e-19)	9
1.14            	rho             	3.04589786e-02	(6.21875000e-01 2.03125000e-01 2.85105016e-20)	9	9.57967716e+00	(9.34375000e-01 9.96875000e-01 7.33980777e-17)	15
1.14            	p               	1.17739434e-02	(6.21875000e-01 2.03125000e-01 2.85105016e-20)	9	1.75763128e+01	(9.34375000e-01 9.96875000e-01 7.33980777e-17)	15
1.16            	mag(U)          	9.81079175e-03	(5.96875000e-01 0.00000000e+00 2.12503626e-18)	9	3.41741125e+00	(6.59375000e-01 2.09375000e-01 1.78291024e-19)	9
1.16            	rho             	1.86992124e-02	(6.21875000e-01 2.03125000e-01 2.85105016e-20)	9	9.62773698e+00	(9.28125000e-01 9.96875000e-01 7.32003112e-17)	15
1.16            	p               	4.81033677e-03	(6.21875000e-01 2.03125000e-01 2.85105016e-20)	9	1.80390181e+01	(9.34375000e-01 9.96875000e-01 7.33980777e-17)	15
1.18            	mag(U)          	1.13568991e-02	(6.00000000e-01 3.12500000e-03 -4.33680869e-20)	9	3.42214614e+00	(6.84375000e-01 2.15625000e-01 2.16840434e-20)	9
1.18            	rho             	1.06573639e-02	(6.28125000e-01 2.03125000e-01 1.73110947e-18)	9	9.78910383e+00	(9.28125000e-01 9.96875000e-01 7.32003112e-17)	15
1.18            	p               	2.78054696e-03	(6.28125000e-01 2.03125000e-01 1.73110947e-18)	9	1.85631153e+01	(9.28125000e-01 9.96875000e-01 7.32003112e-17)	15
1.2             	mag(U)          	1.12830679e-02	(6.00000000e-01 3.12500000e-03 -4.33680869e-20)	9	3.36206849e+00	(6.96875000e-01 2.15625000e-01 -2.91871240e-18)	9
1.2             	rho             	2.55425480e-02	(6.34375000e-01 2.00000000e-01 4.62592927e-19)	9	9.81848154e+00	(9.21875000e-01 9.96875000e-01 -6.07755551e-19)	15
1.2             	p               	1.71660669e-02	(6.34375000e-01 2.03125000e-01 -1.26490253e-20)	9	1.86808167e+01	(9.21875000e-01 9.96875000e-01 -6.07755551e-19)	15
1.22            	mag(U)          	1.11943173e-02	(6.00000000e-01 3.12500000e-03 -4.33680869e-20)	9	3.35613415e+00	(6.46875000e-01 2.09375000e-01 -7.70520398e-17)	9
1.22            	rho             	2.91426745e-02	(6.21875000e-01 2.03125000e-01 2.85105016e-20)	9	9.93757572e+00	(9.15625000e-01 9.96875000e-01 7.25899456e-17)	15
1.22            	p               	9.94196943e-03	(6.21875000e-01 2.03125000e-01 2.85105016e-20)	9	1.89139358e+01	(9.15625000e-01 9.96875000e-01 7.25899456e-17)	15