# Field minima and maxima
# Time          	field           	min             	location(min)   	processor       	max             	location(max)   	processor       
0.02            	mag(U)          	3.21647338e-14	(6.00000000e-01 3.12500000e-02 1.01192203e-19)	14	3.07429989e+00	(6.31250000e-01 2.06250000e-01 7.31836466e-20)	14
0.02            	rho             	1.40000504e+00	(2.61875000e+00 7.81250000e-01 -2.41335372e-19)	5	8.12002923e+00	(5.93750000e-01 6.87500000e-02 -4.97327552e-19)	14
0.02            	p               	1.00000000e+00	(1.68125000e+00 3.31250000e-01 1.51484728e-16)	3	1.73862016e+01	(5.93750000e-01 6.25000000e-03 -3.33502596e-18)	14
0.04            	mag(U)          	4.09689422e-14	(6.00000000e-01 4.37500000e-02 -2.60208521e-19)	14	3.13655696e+00	(6.81250000e-01 2.18750000e-01 8.06887350e-18)	11
0.04            	rho             	7.52448690e-01	(6.31250000e-01 2.06250000e-01 7.31836466e-20)	14	9.11547260e+00	(5.93750000e-01 6.87500000e-02 -4.97327552e-19)	14
0.04            	p               	6.56162837e-01	(6.43750000e-01 2.06250000e-01 -2.14139968e-18)	14	2.70971609e+01	(5.93750000e-01 5.62500000e-02 -3.29677772e-19)	14
0.06            	mag(U)          	1.06822710e-13	(6.00000000e-01 6.25000000e-03 -4.33680869e-20)	14	3.16365079e+00	(7.18750000e-01 2.43750000e-01 2.58562140e-18)	11
0.06            	rho             	3.14710201e-01	(6.43750000e-01 2.06250000e-01 -2.14139968e-18)	14	6.78439751e+00	(5.68750000e-01 3.12500000e-02 -2.39327591e-19)	14
0.06            	p               	2.86153737e-01	(6.43750000e-01 2.06250000e-01 -2.14139968e-18)	14	1.98458729e+01	(5.68750000e-01 3.12500000e-02 -2.39327591e-19)	14
0.08            	mag(U)          	8.36395191e-10	(6.00000000e-01 6.25000000e-03 -4.33680869e-20)	14	3.16912111e+00	(7.81250000e-01 2.56250000e-01 7.79085596e-17)	11
0.08            	rho             	3.95620473e-01	(6.43750000e-01 2.06250000e-01 -2.14139968e-18)	14	6.28479298e+00	(5.93750000e-01 6.25000000e-03 -3.33502596e-18)	14
0.08            	p               	4.31691661e-01	(6.43750000e-01 2.06250000e-01 -2.14139968e-18)	14	1.76237458e+01	(5.43750000e-01 6.25000000e-03 4.86786698e-19)	14
0.1             	mag(U)          	1.55933263e-03	(6.00000000e-01 6.25000000e-03 -4.33680869e-20)	14	3.17270919e+00	(8.31250000e-01 2.81250000e-01 2.37681210e-18)	11
0.1             	rho             	3.43018955e-01	(6.31250000e-01 2.06250000e-01 7.31836466e-20)	14	6.22469080e+00	(5.93750000e-01 6.25000000e-03 -3.33502596e-18)	14
0.1             	p               	3.76322293e-01	(6.31250000e-01 2.06250000e-01 7.31836466e-20)	14	1.68869835e+01	(5.68750000e-01 6.25000000e-03 5.56155559e-20)	14
0.12            	mag(U)          	3.29909170e-03	(5.81250000e-01 0.00000000e+00 -3.32488666e-19)	14	3.16748709e+00	(8.93750000e-01 3.18750000e-01 6.86259820e-19)	11
0.12            	rho             	2.39636026e-01	(6.31250000e-01 2.06250000e-01 7.31836466e-20)	14	6.02061066e+00	(5.06250000e-01 0.00000000e+00 -3.32488666e-19)	14
0.12            	p               	2.49990482e-01	(6.31250000e-01 2.06250000e-01 7.31836466e-20)	14	1.61026941e+01	(5.18750000e-01 6.25000000e-03 4.29564916e-19)	14
0.14            	mag(U)          	1.12427378e-02	(5.93750000e-01 0.00000000e+00 1.76363553e-18)	14	3.17630005e+00	(6.31250000e-01 2.06250000e-01 7.31836466e-20)	14
0.14            	rho             	1.90133529e-01	(6.43750000e-01 2.06250000e-01 -2.14139968e-18)	14	5.96801116e+00	(4.93750000e-01 6.25000000e-03 -4.69027868e-18)	14
0.14            	p               	1.88072898e-01	(6.43750000e-01 2.06250000e-01 -2.14139968e-18)	14	1.54338839e+01	(4.93750000e-01 6.25000000e-03 -4.69027868e-18)	14
0.16            	mag(U)          	1.04184592e-02	(5.93750000e-01 0.00000000e+00 1.76363553e-18)	14	3.15911927e+00	(1.00625000e+00 3.68750000e-01 3.61717954e-17)	11
0.16            	rho             	1.31586061e-01	(6.43750000e-01 2.06250000e-01 -2.14139968e-18)	14	5.94134795e+00	(4.93750000e-01 1.06250000e-01 2.47559496e-19)	14
0.16            	p               	1.15727775e-01	(6.43750000e-01 2.06250000e-01 -2.14139968e-18)	14	1.45390350e+01	(4.81250000e-01 6.25000000e-03 2.85105016e-20)	14
0.18            	mag(U)          	1.29424984e-02	(5.93750000e-01 0.00000000e+00 1.76363553e-18)	14	3.19334594e+00	(7.31250000e-01 2.43750000e-01 5.79847384e-19)	11
0.18            	rho             	1.13804411e-01	(6.43750000e-01 2.06250000e-01 -2.14139968e-18)	14	5.88065579e+00	(4.81250000e-01 1.06250000e-01 3.82843834e-18)	14
0.18            	p               	9.31878246e-02	(6.43750000e-01 2.06250000e-01 -2.14139968e-18)	14	1.38227276e+01	(4.68750000e-01 6.25000000e-03 3.08596063e-19)	14
0.2             	mag(U)          	1.29559894e-02	(5.93750000e-01 0.00000000e+00 1.76363553e-18)	14	3.24080094e+00	(6.93750000e-01 2.18750000e-01 1.28032230e-17)	11
0.2             	rho             	8.94851834e-02	(6.43750000e-01 2.06250000e-01 -2.14139968e-18)	14	5.76230634e+00	(4.68750000e-01 9.37500000e-02 7.09349310e-19)	14
0.2             	p               	6.42979711e-02	(6.43750000e-01 2.06250000e-01 -2.14139968e-18)	14	1.33176965e+01	(5.06250000e-01 6.25000000e-03 -4.92910432e-20)	14
0.22            	mag(U)          	1.32171656e-02	(5.93750000e-01 0.00000000e+00 1.76363553e-18)	14	3.27817000e+00	(7.06250000e-01 2.18750000e-01 1.19724029e-18)	11
0.22            	rho             	9.32832855e-02	(6.43750000e-01 2.06250000e-01 -2.14139968e-18)	14	5.77992402e+00	(4.56250000e-01 4.37500000e-02 1.70259897e-19)	14
0.22            	p               	6.37309975e-02	(6.31250000e-01 2.06250000e-01 7.31836466e-20)	14	1.31527238e+01	(4.68750000e-01 1.87500000e-02 1.55201533e-19)	14
0.24            	mag(U)          	1.78517867e-02	(6.00000000e-01 6.25000000e-03 -4.33680869e-20)	14	3.29766422e+00	(7.56250000e-01 2.43750000e-01 2.28746581e-18)	11
0.24            	rho             	9.42434318e-02	(6.43750000e-01 2.06250000e-01 -2.14139968e-18)	14	5.67213736e+00	(4.56250000e-01 1.06250000e-01 1.66204177e-18)	14
0.24            	p               	7.75918272e-02	(6.43750000e-01 2.06250000e-01 -2.14139968e-18)	14	1.29376246e+01	(5.18750000e-01 6.25000000e-03 4.29564916e-19)	14
0.26            	mag(U)          	1.24709629e-02	(5.93750000e-01 0.00000000e+00 1.76363553e-18)	14	3.31171438e+00	(7.68750000e-01 2.43750000e-01 -9.27595192e-20)	11
0.26            	rho             	8.34325560e-02	(6.43750000e-01 2.06250000e-01 -2.14139968e-18)	14	5.73591350e+00	(4.43750000e-01 4.37500000e-02 -1.39681380e-18)	14
0.26            	p               	6.58413281e-02	(6.31250000e-01 2.06250000e-01 7.31836466e-20)	14	1.27891685e+01	(5.56250000e-01 6.25000000e-03 4.86786698e-19)	14
0.28            	mag(U)          	1.89320882e-02	(6.00000000e-01 6.25000000e-03 -4.33680869e-20)	14	3.32268135e+00	(7.68750000e-01 2.43750000e-01 -9.27595192e-20)	11
0.28            	rho             	9.62366914e-02	(6.56250000e-01 2.06250000e-01 -6.03338431e-20)	14	5.65310431e+00	(4.43750000e-01 6.25000000e-03 -5.85870730e-19)	14
0.28            	p               	8.62924247e-02	(6.43750000e-01 2.06250000e-01 -2.14139968e-18)	14	1.27684459e+01	(5.18750000e-01 6.25000000e-03 4.29564916e-19)	14
0.3             	mag(U)          	1.14878926e-02	(5.93750000e-01 0.00000000e+00 1.76363553e-18)	14	3.33096554e+00	(7.68750000e-01 2.43750000e-01 -9.27595192e-20)	11
0.3             	rho             	6.97458452e-02	(6.56250000e-01 2.06250000e-01 -6.03338431e-20)	14	5.73038598e+00	(4.43750000e-01 6.25000000e-03 -5.85870730e-19)	14
0.3             	p               	6.01902452e-02	(6.56250000e-01 2.06250000e-01 -6.03338431e-20)	14	1.27656857e+01	(5.56250000e-01 6.25000000e-03 4.86786698e-19)	14
0.32            	mag(U)          	1.96954894e-02	(6.00000000e-01 6.25000000e-03 -4.33680869e-20)	14	3.35403979e+00	(7.06250000e-01 2.18750000e-01 1.19724029e-18)	11
0.32            	rho             	5.86737904e-02	(6.43750000e-01 2.06250000e-01 -2.14139968e-18)	14	5.64277298e+00	(4.68750000e-01 1.87500000e-02 1.55201533e-19)	14
0.32            	p               	4.37960685e-02	(6.43750000e-01 2.06250000e-01 -2.14139968e-18)	14	1.27487727e+01	(5.93750000e-01 6.25000000e-03 -3.33502596e-18)	14
0.34            	mag(U)          	9.40733125e-03	(5.93750000e-01 0.00000000e+00 1.76363553e-18)	14	3.36781341e+00	(7.06250000e-01 2.18750000e-01 1.19724029e-18)	11
0.34            	rho             	6.47413370e-02	(6.43750000e-01 2.06250000e-01 -2.14139968e-18)	14	5.68590279e+00	(4.31250000e-01 6.25000000e-03 5.91693297e-19)	14
0.34            	p               	5.19850045e-02	(6.43750000e-01 2.06250000e-01 -2.14139968e-18)	14	1.26234854e+01	(5.43750000e-01 6.25000000e-03 4.86786698e-19)	14
0.36            	mag(U)          	2.03438346e-02	(6.00000000e-01 6.25000000e-03 -4.33680869e-20)	14	3.40390322e+00	(7.18750000e-01 2.18750000e-01 -2.04191409e-19)	11
0.36            	rho             	4.56477693e-02	(6.43750000e-01 2.06250000e-01 -2.14139968e-18)	14	5.69566752e+00	(4.56250000e-01 6.25000000e-03 -8.68466018e-19)	14
0.36            	p               	2.65971765e-02	(6.43750000e-01 2.06250000e-01 -2.14139968e-18)	14	1.24943085e+01	(5.68750000e-01 6.25000000e-03 5.56155559e-20)	14
0.38            	mag(U)          	2.14609565e-02	(6.00000000e-01 6.25000000e-03 -4.33680869e-20)	14	3.45006148e+00	(7.18750000e-01 2.18750000e-01 -2.04191409e-19)	11
0.38            	rho             	7.18089931e-02	(6.43750000e-01 2.06250000e-01 -2.14139968e-18)	14	5.68857797e+00	(4.81250000e-01 6.25000000e-03 2.85105016e-20)	14
0.38            	p               	3.97007047e-02	(6.31250000e-01 2.06250000e-01 7.31836466e-20)	14	1.27018988e+01	(5.93750000e-01 6.25000000e-03 -3.33502596e-18)	14
0.4             	mag(U)          	1.33422088e-02	(5.93750000e-01 0.00000000e+00 1.76363553e-18)	14	3.37131692e+00	(6.81250000e-01 2.18750000e-01 8.06887350e-18)	11
0.4             	rho             	7.26692462e-02	(6.56250000e-01 2.06250000e-01 -6.03338431e-20)	14	5.64791907e+00	(4.81250000e-01 5.62500000e-02 -3.66821735e-19)	14
0.4             	p               	6.23178682e-02	(6.43750000e-01 2.06250000e-01 -2.14139968e-18)	14	1.26376126e+01	(5.43750000e-01 6.25000000e-03 4.86786698e-19)	14
0.42            	mag(U)          	2.12849039e-02	(6.00000000e-01 6.25000000e-03 -4.33680869e-20)	14	3.38868831e+00	(7.18750000e-01 2.18750000e-01 -2.04191409e-19)	11
0.42            	rho             	4.98406689e-02	(6.43750000e-01 2.06250000e-01 -2.14139968e-18)	14	5.66963566e+00	(4.43750000e-01 6.25000000e-03 -5.85870730e-19)	14
0.42            	p               	3.25086908e-02	(6.43750000e-01 2.06250000e-01 -2.14139968e-18)	14	1.25084533e+01	(5.93750000e-01 6.25000000e-03 -3.33502596e-18)	14
0.44            	mag(U)          	2.21816195e-02	(6.00000000e-01 6.25000000e-03 -4.33680869e-20)	14	3.44634689e+00	(7.18750000e-01 2.18750000e-01 -2.04191409e-19)	11
0.44            	rho             	8.62698504e-02	(6.56250000e-01 2.06250000e-01 -6.03338431e-20)	14	5.72324793e+00	(4.81250000e-01 6.25000000e-03 2.85105016e-20)	14
0.44            	p               	6.39144244e-02	(6.31250000e-01 2.06250000e-01 7.31836466e-20)	14	1.27787260e+01	(5.93750000e-01 6.25000000e-03 -3.33502596e-18)	14
0.46            	mag(U)          	1.43416012e-02	(5.93750000e-01 0.00000000e+00 1.76363553e-18)	14	3.40308137e+00	(7.56250000e-01 2.31250000e-01 3.17229525e-20)	11
0.46            	rho             	4.86695466e-02	(6.56250000e-01 2.06250000e-01 -6.03338431e-20)	14	5.76082140e+00	(4.68750000e-01 6.25000000e-03 3.08596063e-19)	14
0.46            	p               	3.76161549e-02	(6.56250000e-01 2.06250000e-01 -6.03338431e-20)	14	1.24997741e+01	(5.56250000e-01 6.25000000e-03 4.86786698e-19)	14
0.48            	mag(U)          	2.21818267e-02	(6.00000000e-01 6.25000000e-03 -4.33680869e-20)	14	3.43911825e+00	(7.18750000e-01 2.18750000e-01 -2.04191409e-19)	11
0.48            	rho             	4.80959894e-02	(6.43750000e-01 2.06250000e-01 -2.14139968e-18)	14	5.75616253e+00	(5.06250000e-01 6.25000000e-03 -4.92910432e-20)	14
0.48            	p               	2.49557673e-02	(6.43750000e-01 2.06250000e-01 -2.14139968e-18)	14	1.25658813e+01	(5.31250000e-01 6.25000000e-03 5.91693297e-19)	14
0.5             	mag(U)          	2.27113130e-02	(6.00000000e-01 6.25000000e-03 -4.33680869e-20)	14	3.44010494e+00	(7.18750000e-01 2.18750000e-01 -2.04191409e-19)	11
0.5             	rho             	8.21714032e-02	(6.68750000e-01 2.06250000e-01 2.25473896e-19)	11	5.74400717e+00	(4.93750000e-01 6.25000000e-03 -4.69027868e-18)	14
0.5             	p               	6.38341455e-02	(6.31250000e-01 2.06250000e-01 7.31836466e-20)	14	1.25752588e+01	(5.93750000e-01 6.25000000e-03 -3.33502596e-18)	14
0.52            	mag(U)          	2.34059131e-02	(6.00000000e-01 6.25000000e-03 -4.33680869e-20)	14	3.40114247e+00	(7.56250000e-01 2.31250000e-01 3.17229525e-20)	11
0.52            	rho             	5.08346082e-02	(6.56250000e-01 2.06250000e-01 -6.03338431e-20)	14	5.78088726e+00	(4.68750000e-01 6.25000000e-03 3.08596063e-19)	14
0.52            	p               	4.21466176e-02	(6.56250000e-01 2.06250000e-01 -6.03338431e-20)	14	1.26652897e+01	(5.93750000e-01 6.25000000e-03 -3.33502596e-18)	14
0.54            	mag(U)          	2.01641977e-02	(5.93750000e-01 0.00000000e+00 1.76363553e-18)	14	3.44498641e+00	(7.18750000e-01 2.18750000e-01 -2.04191409e-19)	11
0.54            	rho             	5.60836147e-02	(6.43750000e-01 2.06250000e-01 -2.14139968e-18)	14	5.76803645e+00	(4.43750000e-01 6.25000000e-03 -5.85870730e-19)	14
0.54            	p               	3.87990922e-02	(6.43750000e-01 2.06250000e-01 -2.14139968e-18)	14	1.25224385e+01	(5.93750000e-01 6.25000000e-03 -3.33502596e-18)	14
0.56            	mag(U)          	2.07703270e-02	(5.93750000e-01 0.00000000e+00 1.76363553e-18)	14	3.46796089e+00	(7.18750000e-01 2.18750000e-01 -2.04191409e-19)	11
0.56            	rho             	6.52708661e-02	(6.56250000e-01 2.06250000e-01 -6.03338431e-20)	14	5.80106750e+00	(5.06250000e-01 6.25000000e-03 -4.92910432e-20)	14
0.56            	p               	5.69528167e-02	(6.56250000e-01 2.06250000e-01 -6.03338431e-20)	14	1.24758482e+01	(5.43750000e-01 6.25000000e-03 4.86786698e-19)	14
0.58            	mag(U)          	2.36402632e-02	(6.00000000e-01 6.25000000e-03 -4.33680869e-20)	14	3.43727409e+00	(7.18750000e-01 2.18750000e-01 -2.04191409e-19)	11
0.58            	rho             	3.95197670e-02	(6.43750000e-01 2.06250000e-01 -2.14139968e-18)	14	5.84169984e+00	(4.93750000e-01 6.25000000e-03 -4.69027868e-18)	14
0.58            	p               	2.20971327e-02	(6.43750000e-01 2.06250000e-01 -2.14139968e-18)	14	1.24293145e+01	(5.93750000e-01 6.25000000e-03 -3.33502596e-18)	14
0.6             	mag(U)          	2.40049115e-02	(6.00000000e-01 6.25000000e-03 -4.33680869e-20)	14	3.43252007e+00	(7.18750000e-01 2.18750000e-01 -2.04191409e-19)	11
0.6             	rho             	7.64559792e-02	(6.31250000e-01 2.06250000e-01 7.31836466e-20)	14	5.79541094e+00	(4.93750000e-01 6.25000000e-03 -4.69027868e-18)	14
0.6             	p               	4.08352395e-02	(6.31250000e-01 2.06250000e-01 7.31836466e-20)	14	1.25071034e+01	(5.93750000e-01 6.25000000e-03 -3.33502596e-18)	14
0.62            	mag(U)          	2.43635817e-02	(6.00000000e-01 6.25000000e-03 -4.33680869e-20)	14	3.34744942e+00	(7.18750000e-01 2.18750000e-01 -2.04191409e-19)	11
0.62            	rho             	4.93886851e-02	(6.56250000e-01 2.00000000e-01 4.62592927e-19)	14	5.75295219e+00	(4.68750000e-01 6.25000000e-03 3.08596063e-19)	14
0.62            	p               	4.12122110e-02	(6.56250000e-01 2.06250000e-01 -6.03338431e-20)	14	1.25483938e+01	(5.93750000e-01 6.25000000e-03 -3.33502596e-18)	14
0.64            	mag(U)          	2.43213644e-02	(5.93750000e-01 0.00000000e+00 1.76363553e-18)	14	3.40423660e+00	(7.18750000e-01 2.18750000e-01 -2.04191409e-19)	11
0.64            	rho             	4.15831949e-02	(6.43750000e-01 2.06250000e-01 -2.14139968e-18)	14	5.89833780e+00	(1.33125000e+00 1.00000000e+00 2.60208521e-19)	9
0.64            	p               	2.02679557e-02	(6.43750000e-01 2.06250000e-01 -2.14139968e-18)	14	1.25474581e+01	(5.93750000e-01 6.25000000e-03 -3.33502596e-18)	14
0.66            	mag(U)          	2.00528539e-02	(5.93750000e-01 0.00000000e+00 1.76363553e-18)	14	3.43801198e+00	(7.18750000e-01 2.18750000e-01 -2.04191409e-19)	11
0.66            	rho             	7.53345668e-02	(6.43750000e-01 2.06250000e-01 -2.14139968e-18)	14	6.18167800e+00	(1.28125000e+00 9.93750000e-01 -7.43937367e-17)	9
0.66            	p               	4.26848925e-02	(6.31250000e-01 2.06250000e-01 7.31836466e-20)	14	1.23389091e+01	(5.56250000e-01 6.25000000e-03 4.86786698e-19)	14
0.68            	mag(U)          	2.42667472e-02	(6.00000000e-01 6.25000000e-03 -4.33680869e-20)	14	3.32006218e+00	(7.56250000e-01 2.31250000e-01 3.17229525e-20)	11
0.68            	rho             	5.52659022e-02	(6.56250000e-01 2.06250000e-01 -6.03338431e-20)	14	6.44951974e+00	(1.24375000e+00 9.93750000e-01 5.78241159e-20)	9
0.68            	p               	4.63074906e-02	(6.43750000e-01 2.06250000e-01 -2.14139968e-18)	14	1.23138007e+01	(5.31250000e-01 6.25000000e-03 5.91693297e-19)	14
0.7             	mag(U)          	2.43762467e-02	(6.00000000e-01 6.25000000e-03 -4.33680869e-20)	14	3.36458098e+00	(7.18750000e-01 2.18750000e-01 -2.04191409e-19)	11
0.7             	rho             	5.29433872e-02	(6.43750000e-01 2.00000000e-01 1.01192203e-19)	14	6.59308687e+00	(1.21875000e+00 9.93750000e-01 3.65275743e-18)	9
0.7             	p               	3.53065918e-02	(6.43750000e-01 2.06250000e-01 -2.14139968e-18)	14	1.23482370e+01	(5.93750000e-01 6.25000000e-03 -3.33502596e-18)	14
0.72            	mag(U)          	2.46095347e-02	(6.00000000e-01 6.25000000e-03 -4.33680869e-20)	14	3.40979103e+00	(7.18750000e-01 2.18750000e-01 -2.04191409e-19)	11
0.72            	rho             	6.46194886e-02	(6.56250000e-01 2.06250000e-01 -6.03338431e-20)	14	6.78124250e+00	(1.19375000e+00 9.93750000e-01 -1.63272816e-18)	9
0.72            	p               	5.28349821e-02	(6.56250000e-01 2.06250000e-01 -6.03338431e-20)	14	1.24073976e+01	(5.93750000e-01 6.25000000e-03 -3.33502596e-18)	14
0.74            	mag(U)          	2.47661933e-02	(6.00000000e-01 6.25000000e-03 -4.33680869e-20)	14	3.38099115e+00	(7.18750000e-01 2.18750000e-01 -2.04191409e-19)	11
0.74            	rho             	4.19619158e-02	(6.43750000e-01 2.06250000e-01 -2.14139968e-18)	14	6.99765918e+00	(1.16875000e+00 9.93750000e-01 1.81049315e-16)	9
0.74            	p               	2.20129563e-02	(6.43750000e-01 2.06250000e-01 -2.14139968e-18)	14	1.24603707e+01	(5.93750000e-01 6.25000000e-03 -3.33502596e-18)	14
0.76            	mag(U)          	2.42877313e-02	(5.93750000e-01 0.00000000e+00 1.76363553e-18)	14	3.34883219e+00	(7.18750000e-01 2.18750000e-01 -2.04191409e-19)	11
0.76            	rho             	8.40290913e-02	(6.31250000e-01 2.06250000e-01 7.31836466e-20)	14	7.16069396e+00	(1.15625000e+00 9.93750000e-01 -1.50795858e-16)	9
0.76            	p               	4.45311868e-02	(6.31250000e-01 2.06250000e-01 7.31836466e-20)	14	1.24395272e+01	(5.93750000e-01 6.25000000e-03 -3.33502596e-18)	14
0.78            	mag(U)          	1.97933351e-02	(5.93750000e-01 0.00000000e+00 1.76363553e-18)	14	3.26452150e+00	(7.43750000e-01 2.31250000e-01 -1.20005118e-18)	11
0.78            	rho             	4.28784195e-02	(6.56250000e-01 2.06250000e-01 -6.03338431e-20)	14	7.24959767e+00	(1.13125000e+00 9.93750000e-01 3.51548539e-17)	9
0.78            	p               	3.02978741e-02	(6.56250000e-01 2.06250000e-01 -6.03338431e-20)	14	1.22473595e+01	(5.56250000e-01 6.25000000e-03 4.86786698e-19)	14
0.8             	mag(U)          	2.43426199e-02	(6.00000000e-01 6.25000000e-03 -4.33680869e-20)	14	3.33673404e+00	(7.18750000e-01 2.18750000e-01 -2.04191409e-19)	11
0.8             	rho             	4.73579716e-02	(6.43750000e-01 2.06250000e-01 -2.14139968e-18)	14	7.41388963e+00	(1.11875000e+00 9.93750000e-01 -1.63272816e-18)	9
0.8             	p               	2.20571175e-02	(6.43750000e-01 2.06250000e-01 -2.14139968e-18)	14	1.21953747e+01	(5.31250000e-01 6.25000000e-03 5.91693297e-19)	14
0.82            	mag(U)          	2.42854706e-02	(6.00000000e-01 6.25000000e-03 -4.33680869e-20)	14	3.31310879e+00	(7.18750000e-01 2.18750000e-01 -2.04191409e-19)	11
0.82            	rho             	8.18886915e-02	(6.68750000e-01 2.06250000e-01 2.25473896e-19)	11	7.55220485e+00	(1.10625000e+00 9.93750000e-01 3.70210871e-17)	9
0.82            	p               	6.31475385e-02	(6.31250000e-01 2.06250000e-01 7.31836466e-20)	14	1.22296870e+01	(5.93750000e-01 6.25000000e-03 -3.33502596e-18)	14
0.84            	mag(U)          	2.40703790e-02	(6.00000000e-01 6.25000000e-03 -4.33680869e-20)	14	3.27282135e+00	(7.18750000e-01 2.18750000e-01 -2.04191409e-19)	11
0.84            	rho             	5.15130230e-02	(6.56250000e-01 2.06250000e-01 -6.03338431e-20)	14	7.66655699e+00	(1.09375000e+00 9.93750000e-01 3.48878189e-17)	9
0.84            	p               	3.85929272e-02	(6.56250000e-01 2.06250000e-01 -6.03338431e-20)	14	1.25420825e+01	(1.09375000e+00 9.93750000e-01 3.48878189e-17)	9
0.86            	mag(U)          	2.42009758e-02	(6.00000000e-01 6.25000000e-03 -4.33680869e-20)	14	3.31861950e+00	(7.18750000e-01 2.18750000e-01 -2.04191409e-19)	11
0.86            	rho             	5.43755773e-02	(6.43750000e-01 2.06250000e-01 -2.14139968e-18)	14	7.76608128e+00	(1.08125000e+00 9.93750000e-01 -2.13467361e-18)	9
0.86            	p               	3.39404422e-02	(6.43750000e-01 2.06250000e-01 -2.14139968e-18)	14	1.28097973e+01	(1.08125000e+00 9.93750000e-01 -2.13467361e-18)	9
0.88            	mag(U)          	2.41950711e-02	(6.00000000e-01 6.25000000e-03 -4.33680869e-20)	14	3.27126446e+00	(2.75625000e+00 8.81250000e-01 7.27515720e-17)	5
0.88            	rho             	5.88480920e-02	(6.56250000e-01 2.06250000e-01 -6.03338431e-20)	14	7.88588406e+00	(1.06875000e+00 9.93750000e-01 4.13257713e-17)	9
0.88            	p               	4.25205383e-02	(6.43750000e-01 2.06250000e-01 -2.14139968e-18)	14	1.31174978e+01	(1.06875000e+00 9.93750000e-01 4.13257713e-17)	9
0.9             	mag(U)          	2.37644315e-02	(5.93750000e-01 0.00000000e+00 1.76363553e-18)	14	3.27301965e+00	(2.70625000e+00 8.68750000e-01 1.47936977e-16)	5
0.9             	rho             	4.11939644e-02	(6.43750000e-01 2.06250000e-01 -2.14139968e-18)	14	8.02982900e+00	(1.05625000e+00 9.93750000e-01 3.36018347e-17)	9
0.9             	p               	1.97987857e-02	(6.43750000e-01 2.06250000e-01 -2.14139968e-18)	14	1.34971997e+01	(1.05625000e+00 9.93750000e-01 3.36018347e-17)	9
0.92            	mag(U)          	2.08298929e-02	(5.93750000e-01 0.00000000e+00 1.76363553e-18)	14	3.27715485e+00	(2.76875000e+00 8.68750000e-01 1.46505429e-16)	5
0.92            	rho             	7.41892941e-02	(6.43750000e-01 2.06250000e-01 -2.14139968e-18)	14	8.16932344e+00	(1.04375000e+00 9.93750000e-01 5.78843493e-19)	8
0.92            	p               	4.47533358e-02	(6.31250000e-01 2.06250000e-01 7.31836466e-20)	14	1.38589557e+01	(1.04375000e+00 9.93750000e-01 5.78843493e-19)	8
0.94            	mag(U)          	2.34195101e-02	(6.00000000e-01 6.25000000e-03 -4.33680869e-20)	14	3.27731551e+00	(2.83125000e+00 8.68750000e-01 -2.24871562e-20)	5
0.94            	rho             	4.67431034e-02	(6.43750000e-01 2.06250000e-01 -2.14139968e-18)	14	8.24445123e+00	(1.03125000e+00 9.93750000e-01 3.47474750e-17)	8
0.94            	p               	2.82152918e-02	(6.43750000e-01 2.06250000e-01 -2.14139968e-18)	14	1.39994148e+01	(1.03125000e+00 9.93750000e-01 3.47474750e-17)	8
0.96            	mag(U)          	2.36917106e-02	(6.00000000e-01 6.25000000e-03 -4.33680869e-20)	14	3.27610134e+00	(2.88125000e+00 8.68750000e-01 -1.47345485e-16)	5
0.96            	rho             	7.80273733e-02	(6.43750000e-01 2.06250000e-01 -2.14139968e-18)	14	8.21257584e+00	(1.01875000e+00 9.93750000e-01 3.76967056e-17)	8
0.96            	p               	3.70670274e-02	(6.31250000e-01 2.06250000e-01 7.31836466e-20)	14	1.41002145e+01	(1.03125000e+00 9.93750000e-01 3.47474750e-17)	8
0.98            	mag(U)          	2.36730825e-02	(6.00000000e-01 6.25000000e-03 -4.33680869e-20)	14	3.27132049e+00	(2.84375000e+00 8.56250000e-01 -1.81979721e-16)	5
0.98            	rho             	5.78746158e-02	(6.56250000e-01 2.06250000e-01 -6.03338431e-20)	14	8.37780590e+00	(1.01875000e+00 9.93750000e-01 3.76967056e-17)	8
0.98            	p               	4.41748859e-02	(6.56250000e-01 2.06250000e-01 -6.03338431e-20)	14	1.45381522e+01	(1.01875000e+00 9.93750000e-01 3.76967056e-17)	8
1               	mag(U)          	2.34599564e-02	(6.00000000e-01 6.25000000e-03 -4.33680869e-20)	14	3.27568184e+00	(2.81875000e+00 8.56250000e-01 3.76820488e-18)	5
1               	rho             	4.67084984e-02	(6.43750000e-01 2.06250000e-01 -2.14139968e-18)	14	8.55060954e+00	(1.00625000e+00 9.93750000e-01 3.42122003e-17)	8
1               	p               	2.01415645e-02	(6.43750000e-01 2.06250000e-01 -2.14139968e-18)	14	1.48809512e+01	(1.00625000e+00 9.93750000e-01 3.42122003e-17)	8
1.02            	mag(U)          	2.37115362e-02	(6.00000000e-01 6.25000000e-03 -4.33680869e-20)	14	3.27777679e+00	(2.86875000e+00 8.56250000e-01 -5.47522097e-19)	5
1.02            	rho             	8.17064365e-02	(6.68750000e-01 2.06250000e-01 2.25473896e-19)	11	8.53977104e+00	(9.93750000e-01 9.93750000e-01 -2.03187518e-19)	8
1.02            	p               	6.46921392e-02	(6.31250000e-01 2.06250000e-01 7.31836466e-20)	14	1.48879621e+01	(1.00625000e+00 9.93750000e-01 3.42122003e-17)	8
1.04            	mag(U)          	2.32375872e-02	(6.00000000e-01 6.25000000e-03 -4.33680869e-20)	14	3.27278486e+00	(2.99375000e+00 8.93750000e-01 3.98143131e-19)	5
1.04            	rho             	3.86376019e-02	(6.56250000e-01 2.06250000e-01 -6.03338431e-20)	14	8.61243479e+00	(9.93750000e-01 9.93750000e-01 -2.03187518e-19)	8
1.04            	p               	2.08043717e-02	(6.56250000e-01 2.06250000e-01 -6.03338431e-20)	14	1.52333190e+01	(9.93750000e-01 9.93750000e-01 -2.03187518e-19)	8
1.06            	mag(U)          	2.35440792e-02	(6.00000000e-01 6.25000000e-03 -4.33680869e-20)	14	3.27349768e+00	(2.99375000e+00 8.93750000e-01 3.98143131e-19)	5
1.06            	rho             	5.39981083e-02	(6.43750000e-01 2.06250000e-01 -2.14139968e-18)	14	8.78000284e+00	(9.81250000e-01 9.93750000e-01 -3.55919480e-18)	8
1.06            	p               	2.50069901e-02	(6.43750000e-01 2.06250000e-01 -2.14139968e-18)	14	1.54462265e+01	(9.81250000e-01 9.93750000e-01 -3.55919480e-18)	8
1.08            	mag(U)          	2.35864477e-02	(6.00000000e-01 6.25000000e-03 -4.33680869e-20)	14	3.27652661e+00	(2.88125000e+00 8.56250000e-01 -3.96938462e-19)	5
1.08            	rho             	7.83474200e-02	(6.68750000e-01 2.06250000e-01 2.25473896e-19)	11	8.77264097e+00	(9.81250000e-01 9.93750000e-01 -3.55919480e-18)	8
1.08            	p               	6.50022691e-02	(6.68750000e-01 2.06250000e-01 2.25473896e-19)	11	1.56880141e+01	(9.81250000e-01 9.93750000e-01 -3.55919480e-18)	8
1.1             	mag(U)          	2.31992346e-02	(6.00000000e-01 6.25000000e-03 -4.33680869e-20)	14	3.26874223e+00	(2.94375000e+00 8.56250000e-01 -7.25676592e-17)	5
1.1             	rho             	5.29557297e-02	(6.43750000e-01 2.06250000e-01 -2.14139968e-18)	14	8.89763456e+00	(9.68750000e-01 9.93750000e-01 4.18879502e-17)	8
1.1             	p               	3.28528609e-02	(6.43750000e-01 2.06250000e-01 -2.14139968e-18)	14	1.58743956e+01	(9.68750000e-01 9.93750000e-01 4.18879502e-17)	8
1.12            	mag(U)          	2.30961503e-02	(5.93750000e-01 0.00000000e+00 1.76363553e-18)	14	3.26920688e+00	(2.90625000e+00 8.56250000e-01 -1.49672504e-16)	5
1.12            	rho             	6.21000004e-02	(6.43750000e-01 2.06250000e-01 -2.14139968e-18)	14	9.00426242e+00	(9.68750000e-01 9.93750000e-01 4.18879502e-17)	8
1.12            	p               	3.52511362e-02	(6.43750000e-01 2.06250000e-01 -2.14139968e-18)	14	1.63079233e+01	(9.68750000e-01 9.93750000e-01 4.18879502e-17)	8
1.14            	mag(U)          	2.31877208e-02	(6.00000000e-01 6.25000000e-03 -4.33680869e-20)	14	3.26547607e+00	(2.99375000e+00 8.93750000e-01 3.98143131e-19)	5
1.14            	rho             	6.42863624e-02	(6.56250000e-01 2.06250000e-01 -6.03338431e-20)	14	9.07244713e+00	(9.56250000e-01 9.93750000e-01 3.49801769e-17)	8
1.14            	p               	4.49748437e-02	(6.56250000e-01 2.06250000e-01 -6.03338431e-20)	14	1.63647640e+01	(9.56250000e-01 9.93750000e-01 3.49801769e-17)	8
1.16            	mag(U)          	2.29943133e-02	(6.00000000e-01 6.25000000e-03 -4.33680869e-20)	14	3.26148263e+00	(2.99375000e+00 8.93750000e-01 3.98143131e-19)	5
1.16            	rho             	4.46531890e-02	(6.43750000e-01 2.06250000e-01 -2.14139968e-18)	14	9.16668009e+00	(9.56250000e-01 9.93750000e-01 3.49801769e-17)	8
1.16            	p               	2.25536337e-02	(6.43750000e-01 2.06250000e-01 -2.14139968e-18)	14	1.67807588e+01	(9.56250000e-01 9.93750000e-01 3.49801769e-17)	8
1.18            	mag(U)          	2.30244119e-02	(6.00000000e-01 6.25000000e-03 -4.33680869e-20)	14	3.25722232e+00	(2.99375000e+00 8.93750000e-01 3.98143131e-19)	5
1.18            	rho             	5.58666810e-02	(6.43750000e-01 2.00000000e-01 1.01192203e-19)	14	9.21884041e+00	(9.43750000e-01 9.93750000e-01 3.58766514e-17)	8
1.18            	p               	3.13207989e-02	(6.43750000e-01 2.06250000e-01 -2.14139968e-18)	14	1.67275640e+01	(9.43750000e-01 9.93750000e-01 3.58766514e-17)	8
1.2             	mag(U)          	2.29783262e-02	(6.00000000e-01 6.25000000e-03 -4.33680869e-20)	14	3.25529194e+00	(2.99375000e+00 8.93750000e-01 3.98143131e-19)	5
1.2             	rho             	4.54689904e-02	(6.43750000e-01 2.06250000e-01 -2.14139968e-18)	14	9.29581778e+00	(9.43750000e-01 9.93750000e-01 3.58766514e-17)	8
1.2             	p               	2.23395687e-02	(6.43750000e-01 2.06250000e-01 -2.14139968e-18)	14	1.71872232e+01	(9.43750000e-01 9.93750000e-01 3.58766514e-17)	8
1.22            	mag(U)          	2.33430300e-02	(6.00000000e-01 6.25000000e-03 -4.33680869e-20)	14	3.25264506e+00	(2.99375000e+00 8.93750000e-01 3.98143131e-19)	5